[
  {
    "element_code": "AAhUB6AovxqoGSxkaZZ",
    "wikilink": "https://en.wikipedia.org/wiki/Argon",
    "link": "https://upload.wikimedia.org/wikipedia/commons/thumb/8/87/Argon_discharge_tube.jpg/1920px-Argon_discharge_tube.jpg",
    "description": "Argon is a chemical element with the symbol Ar and atomic number 18. It is in group 18 of the periodic table and is a noble gas. Argon is the third-most abundant gas in the Earth's atmosphere, at 0.934% (9340 ppmv). It is more than twice as abundant as water vapor (which averages about 4000 ppmv, but varies greatly), 23 times as abundant as carbon dioxide (400 ppmv), and more than 500 times as abundant as neon (18 ppmv). Argon is the most abundant noble gas in Earth's crust, comprising 0.00015% of the crust.",

    "element": "Argon",
    "short": "Ar",
    "element_year": "1894",
    "element_discovered_name": "William Ramsay",
    "element_group": "Noblegases",
    "element_appearance": "Colorless Gas",
    "element_electrons": "18",
    "element_protons": "18",
    "element_neutron_common": "22",

    "radioactive": "No",
    "neutron_cross_sectional": "0.675 (b)",

    "electrical_type": "---",
    "resistivity": "---",
    "resistivity_mult": "---",
    "magnetic_type": "Diamagnetic",
    "superconducting_point": "---",

    "element_atomic_number": "18",
    "element_atomicmass": "39.95 (u)",
    "element_density": "0.001784 (g/cm^3)",
    "element_electronegativty": "---",
    "element_block": "p - block",
    "element_shells_electrons": "K2 L8 M8 N0 O0 P0 Q0 R0",
    "element_model": "https://upload.wikimedia.org/wikipedia/commons/thumb/5/5c/Electron_shell_018_Argon_-_no_label.svg/1280px-Electron_shell_018_Argon_-_no_label.svg.png",

    "element_boiling_kelvin": "87.302 (K)",
    "element_boiling_celsius": "−185.848 (°C)",
    "element_boiling_fahrenheit": "−302.526 (°F)",
    "element_melting_kelvin": "83.81 (K)",
    "element_melting_celsius": "−189.34 (°C)",
    "element_melting_fahrenheit": "−308.81 (°F)",

    "element_electron_config": "3s^2 3p^6",
    "element_ion_charge": "---",
    "element_ionization_energy1": "15.75962 (eV)",
    "element_ionization_energy2": "27.62967 (eV)",
    "element_ionization_energy3": "40.74 (eV)",
    "element_ionization_energy4": "59.81 (eV)",
    "element_ionization_energy5": "75.02 (eV)",
    "element_ionization_energy6": "91.009 (eV)",
    "element_ionization_energy7": "124.323 (eV)",
    "element_ionization_energy8": "143.460 (eV)",
    "element_ionization_energy9": "422.45 (eV)",
    "element_ionization_energy10": "478.69 (eV)",
    "element_ionization_energy11": "538.96 (eV)",
    "element_ionization_energy12": "618.26 (eV)",
    "element_ionization_energy13": "686.10 (eV)",
    "element_ionization_energy14": "755.74 (eV)",
    "element_ionization_energy15": "854.77 (eV)",
    "element_ionization_energy16": "918.03 (eV)",
    "element_ionization_energy17": "4120.8857 (eV)",
    "element_ionization_energy18": "4426.2296 (eV)",
    "element_atomic_radius_e": "71 (pm)",
    "element_atomic_radius": "71 (pm)",
    "element_covalent_radius": "97 (pm)",
    "element_van_der_waals": "188 (pm)",

    "element_phase": "Gas",
    "element_fusion_heat": "1.18 (kJ/mol)",
    "element_specific_heat_capacity": "0.520 J/(g·K)",
    "element_vaporization_heat": "6.43 (kJ/mol)",

    "oxidation_state_neg": "0",
    "oxidation_state_pos": "",

    "speed_of_sound_gas": "323 (m/s) [27°C]",
    "speed_of_sound_liquid": "813 (m/s) [-185.9°C]",
    "speed_of_sound_solid": "---",

    "sea_water": "4.5 × 10^2",
    "crustal_rocks": null,
    "sun": "1.0 × 10^5",
    "solar_system": "1.0 × 10^5",

    "iso_1": "Ar-29",
    "iso_mass_1": "---",
    "iso_half_1": "~4×10^−20 (s)",
    "decay_type_1": "2p",
    "iso_Z_1": "18",
    "iso_N_1": "11",
    "iso_A_1": "29",

    "iso_2": "Ar-30",
    "iso_mass_2": "30.02247",
    "iso_half_2": "10 (ps)",
    "decay_type_2": "2p",
    "iso_Z_2": "18",
    "iso_N_2": "12",
    "iso_A_2": "30",

    "iso_3": "Ar-31",
    "iso_mass_3": "31.01216",
    "iso_half_3": "15.1 (ms)",
    "decay_type_3": "B+",
    "iso_Z_3": "18",
    "iso_N_3": "13",
    "iso_A_3": "31",

    "iso_4": "Ar-32",
    "iso_mass_4": "31.9976378",
    "iso_half_4": "98 (ms)",
    "decay_type_4": "B+",
    "iso_Z_4": "18",
    "iso_N_4": "14",
    "iso_A_4": "32",
    
    "iso_5": "Ar-33",
    "iso_mass_5": "32.9899255",
    "iso_half_5": "173.0 (ms)",
    "decay_type_5": "B+",
    "iso_Z_5": "18",
    "iso_N_5": "15",
    "iso_A_5": "33",

    "iso_6": "Ar-34",
    "iso_mass_6": "33.98027009",
    "iso_half_6": "843.8 (ms)",
    "decay_type_6": "B+",
    "iso_Z_6": "18",
    "iso_N_6": "16",
    "iso_A_6": "34",

    "iso_7": "Ar-35",
    "iso_mass_7": "34.9752577",
    "iso_half_7": "1.7756 (s)",
    "decay_type_7": "B+",
    "iso_Z_7": "18",
    "iso_N_7": "17",
    "iso_A_7": "35",

    "iso_8": "Ar-36",
    "iso_mass_8": "35.967545105",
    "iso_half_8": "Observationally Stable",
    "decay_type_8": "observationally stable",
    "iso_Z_8": "18",
    "iso_N_8": "18",
    "iso_A_8": "36",

    "iso_9": "Ar-37",
    "iso_mass_9": "36.96677631",
    "iso_half_9": "35.011 (Days)",
    "decay_type_9": "e- capture",
    "iso_Z_9": "18",
    "iso_N_9": "19",
    "iso_A_9": "37",

    "iso_10": "Ar-38",
    "iso_mass_10": "37.96273210",
    "iso_half_10": "Stable",
    "decay_type_10": "stable",
    "iso_Z_10": "18",
    "iso_N_10": "20",
    "iso_A_10": "38",

    "iso_11": "Ar-39",
    "iso_mass_11": "38.964313",
    "iso_half_11": "269 (Years)",
    "decay_type_11": "B-",
    "iso_Z_11": "18",
    "iso_N_11": "21",
    "iso_A_11": "39",

    "iso_12": "Ar-40",
    "iso_mass_12": "39.9623831238",
    "iso_half_12": "Stable",
    "decay_type_12": "stable",
    "iso_Z_12": "18",
    "iso_N_12": "22",
    "iso_A_12": "40",

    "iso_13": "Ar-41",
    "iso_mass_13": "40.9645006",
    "iso_half_13": "109.61 (min)",
    "decay_type_13": "B-",
    "iso_Z_13": "18",
    "iso_N_13": "23",
    "iso_A_13": "41",

    "iso_14": "Ar-42",
    "iso_mass_14": "41.963046",
    "iso_half_14": "32.9 (years)",
    "decay_type_14": "B-",
    "iso_Z_14": "18",
    "iso_N_14": "24",
    "iso_A_14": "42",

    "iso_15": "Ar-43",
    "iso_mass_15": "42.965636",
    "iso_half_15": "5.37 (min)",
    "decay_type_15": "B-",
    "iso_Z_15": "18",
    "iso_N_15": "25",
    "iso_A_15": "43",

    "iso_16": "Ar-44",
    "iso_mass_16": "43.9649238",
    "iso_half_16": "11.87 (min)",
    "decay_type_16": "B-",
    "iso_Z_16": "18",
    "iso_N_16": "26",
    "iso_A_16": "44",

    "iso_17": "Ar-45",
    "iso_mass_17": "44.9680397",
    "iso_half_17": "21.48 (s)",
    "decay_type_17": "B-",
    "iso_Z_17": "18",
    "iso_N_17": "27",
    "iso_A_17": "45",

    "iso_18": "Ar-46",
    "iso_mass_18": "45.9680374",
    "iso_half_18": "8.4 (s)",
    "decay_type_18": "B-",
    "iso_Z_18": "18",
    "iso_N_18": "28",
    "iso_A_18": "46",

    "iso_19": "Ar-47",
    "iso_mass_19": "46.9727681",
    "iso_half_19": "1.23 (s)",
    "decay_type_19": "B-",
    "iso_Z_19": "18",
    "iso_N_19": "29",
    "iso_A_19": "47",

    "iso_20": "Ar-48",
    "iso_mass_20": "47.97608",
    "iso_half_20": "415 (ms)",
    "decay_type_20": "B-",
    "iso_Z_20": "18",
    "iso_N_20": "30",
    "iso_A_20": "48",

    "iso_21": "Ar-49",
    "iso_mass_21": "48.98155",
    "iso_half_21": "236 (ms)",
    "decay_type_21": "B-",
    "iso_Z_21": "18",
    "iso_N_21": "31",
    "iso_A_21": "49",

    "iso_22": "Ar-50",
    "iso_mass_22": "49.98569",
    "iso_half_22": "106 (ms)",
    "decay_type_22": "B-",
    "iso_Z_22": "18",
    "iso_N_22": "32",
    "iso_A_22": "50",

    "iso_23": "Ar-51",
    "iso_mass_23": "50.99280",
    "iso_half_23": "60 (ms)",
    "decay_type_23": "B-",
    "iso_Z_23": "18",
    "iso_N_23": "33",
    "iso_A_23": "51",

    "iso_24": "Ar-52",
    "iso_mass_24": "51.99863",
    "iso_half_24": "10 (ms)",
    "decay_type_24": "B-",
    "iso_Z_24": "18",
    "iso_N_24": "34",
    "iso_A_24": "52",

    "iso_25": "Ar-53",
    "iso_mass_25": "53.00729",
    "iso_half_25": "3 (ms)",
    "decay_type_25": "B-",
    "iso_Z_25": "18",
    "iso_N_25": "35",
    "iso_A_25": "53",

    "iso_26": "Ar-54",
    "iso_mass_26": "---",
    "iso_half_26": "---",
    "decay_type_26": "B-",
    "iso_Z_26": "18",
    "iso_N_26": "36",
    "iso_A_26": "54"
  }
]