[
  {
    "element_code": "AAR7rfVRWwrRCSSNkZZ",
    "wikilink": "https://en.wikipedia.org/wiki/Barium",
    "link": "https://upload.wikimedia.org/wikipedia/commons/1/16/Barium_unter_Argon_Schutzgas_Atmosph%C3%A4re.jpg",
    "description": "Barium is a chemical element with the symbol Ba and atomic number 56. It is the fifth element in group 2 and is a soft, silvery alkaline earth metal. Because of its high chemical reactivity, barium is never found in nature as a free element. Its hydroxide, known in pre-modern times as baryta, does not occur as a mineral, but can be prepared by heating barium carbonate.",

    "element": "Barium",
    "short": "Ba",
    "element_year": "1772",
    "element_discovered_name": "Carl Wilhelm Scheele",
    "element_group": "Alkaline Earth Metals",
    "element_appearance": "Silvery Gray with a Pale Yellow Tint",
    "element_electrons": "56",
    "element_protons": "56",
    "element_neutron_common": "82",

    "radioactive": "No",
    "neutron_cross_sectional": "1.3 (b)",

    "electrical_type": "Conductor",
    "resistivity": "3.5",
    "resistivity_mult": "0.0000001",
    "magnetic_type": "Paramagnetic",
    "superconducting_point": "---",

    "element_atomic_number": "56",
    "element_atomicmass": "137.327 (u)",
    "element_density": "3.62 (g/cm^3)",
    "element_electronegativty": "0.89",
    "element_block": "s - block",
    "element_shells_electrons": "K2 L8 18 N18 O8 P2 Q0 R0",
    "element_model": "https://upload.wikimedia.org/wikipedia/commons/thumb/d/db/Electron_shell_056_Barium_-_no_label.svg/1280px-Electron_shell_056_Barium_-_no_label.svg.png",

    "element_boiling_kelvin": "2118 (K)",
    "element_boiling_celsius": "1845 (°C)",
    "element_boiling_fahrenheit": "3353 (°F)",
    "element_melting_kelvin": "1000 (K)",
    "element_melting_celsius": "727 (°C)",
    "element_melting_fahrenheit": "1341 (°F)",

    "element_electron_config": "6s^2",
    "element_ion_charge": "Ba^2+",
    "element_ionization_energy1": "5.21170 (eV)",
    "element_ionization_energy2": "10.00390 (eV)",
    "element_atomic_radius_e": "215 (pm)",
    "element_atomic_radius": "253 (pm)",
    "element_covalent_radius": "198 (pm)",
    "element_van_der_waals": "268",

    "element_phase": "Solid",
    "element_fusion_heat": "7.12 (kJ/mol)",
    "element_specific_heat_capacity": "0.204 J/(g·K)",
    "element_vaporization_heat": "140 (kJ/mol)",

    "oxidation_state_neg": "",
    "oxidation_state_pos": "1 2",

    "speed_of_sound_gas": "---",
    "speed_of_sound_liquid": "---",
    "speed_of_sound_solid": "1620 (m/s) [20°C]",

    "young_modulus": "13 (GPa)",
    "poisson_ratio": "---",
    "bulk_modulus": "9.6 (GPa)",
    "shear_modulus": "4.9 (GPa)",

    "mohs_hardness": "1.25",
    "vickers_hardness": "---",
    "brinell_hardness": "---",

    "earth_crust": "650.00",
    "earth_soils": "500.00",
    "urban_soils": "853.12",

    "iso_1": "Ba-114",
    "iso_mass_1": "113.95072",
    "decay_type_1": "B+",
    "iso_half_1": "460 ms",
    "iso_Z_1": "56",
    "iso_N_1": "58",
    "iso_A_1": "114",

    "iso_2": "Ba-115",
    "iso_mass_2": "114.94748",
    "decay_type_2": "B+",
    "iso_half_2": "0.45 s",
    "iso_Z_2": "56",
    "iso_N_2": "59",
    "iso_A_2": "115",

    "iso_3": "Ba-116",
    "iso_mass_3": "115.94162",
    "decay_type_3": "B+",
    "iso_half_3": "1.3 s",
    "iso_Z_3": "56",
    "iso_N_3": "60",
    "iso_A_3": "116",

    "iso_4": "Ba-117",
    "iso_mass_4": "116.93832",
    "decay_type_4": "B+",
    "iso_half_4": "1.75 s",
    "iso_Z_4": "56",
    "iso_N_4": "61",
    "iso_A_4": "117",

    "iso_5": "Ba-118",
    "iso_mass_5": "117.93323",
    "decay_type_5": "B+",
    "iso_half_5": "5.2 s",
    "iso_Z_5": "56",
    "iso_N_5": "62",
    "iso_A_5": "118",

    "iso_6": "Ba-119",
    "iso_mass_6": "118.93066",
    "decay_type_6": "B+",
    "iso_half_6": "5.4 s",
    "iso_Z_6": "56",
    "iso_N_6": "63",
    "iso_A_6": "119",

    "iso_7": "Ba-120",
    "iso_mass_7": "119.92604",
    "decay_type_7": "B+",
    "iso_half_7": "24 s",
    "iso_Z_7": "56",
    "iso_N_7": "64",
    "iso_A_7": "120",

    "iso_8": "Ba-121",
    "iso_mass_8": "120.92405",
    "decay_type_8": "B+",
    "iso_half_8": "29.7 s",
    "iso_Z_8": "56",
    "iso_N_8": "65",
    "iso_A_8": "121",

    "iso_9": "Ba-122",
    "iso_mass_9": "121.91990",
    "decay_type_9": "B+",
    "iso_half_9": "1.95 min",
    "iso_Z_9": "56",
    "iso_N_9": "66",
    "iso_A_9": "122",

    "iso_10": "Ba-123",
    "iso_mass_10": "122.918781",
    "decay_type_10": "B+",
    "iso_half_10": "2.7 min",
    "iso_Z_10": "56",
    "iso_N_10": "67",
    "iso_A_10": "123",

    "iso_11": "Ba-124",
    "iso_mass_11": "123.915094",
    "decay_type_11": "B+",
    "iso_half_11": "11.0 min",
    "iso_Z_11": "56",
    "iso_N_11": "68",
    "iso_A_11": "124",

    "iso_12": "Ba-125",
    "iso_mass_12": "124.914472",
    "decay_type_12": "B+",
    "iso_half_12": "3.3 min",
    "iso_Z_12": "56",
    "iso_N_12": "69",
    "iso_A_12": "125",

    "iso_13": "Ba-126",
    "iso_mass_13": "125.911250",
    "decay_type_13": "B+",
    "iso_half_13": "100 min",
    "iso_Z_13": "56",
    "iso_N_13": "70",
    "iso_A_13": "126",

    "iso_14": "Ba-127",
    "iso_mass_14": "126.911091",
    "decay_type_14": "B+",
    "iso_half_14": "12.7 min",
    "iso_Z_14": "56",
    "iso_N_14": "71",
    "iso_A_14": "127",

    "iso_15": "Ba-128",
    "iso_mass_15": "127.908352",
    "decay_type_15": "EC",
    "iso_half_15": "2.43 d",
    "iso_Z_15": "56",
    "iso_N_15": "72",
    "iso_A_15": "128",

    "iso_16": "Ba-129",
    "iso_mass_16": "128.908683",
    "decay_type_16": "B+",
    "iso_half_16": "2.23 h",
    "iso_Z_16": "56",
    "iso_N_16": "73",
    "iso_A_16": "129",

    "iso_17": "Ba-130",
    "iso_mass_17": "129.906320",
    "decay_type_17": "2EC",
    "iso_half_17": "1×10^21 y",
    "iso_Z_17": "56",
    "iso_N_17": "74",
    "iso_A_17": "130",

    "iso_18": "Ba-131",
    "iso_mass_18": "130.906946",
    "decay_type_18": "B+",
    "iso_half_18": "11.52 d",
    "iso_Z_18": "56",
    "iso_N_18": "75",
    "iso_A_18": "131",

    "iso_19": "Ba-132",
    "iso_mass_19": "131.905061",
    "decay_type_19": "stable",
    "iso_half_19": "stable",
    "iso_Z_19": "56",
    "iso_N_19": "76",
    "iso_A_19": "132",

    "iso_20": "Ba-133",
    "iso_mass_20": "132.906007",
    "decay_type_20": "B+",
    "iso_half_20": "10.51 y",
    "iso_Z_20": "56",
    "iso_N_20": "77",
    "iso_A_20": "133",

    "iso_21": "Ba-134",
    "iso_mass_21": "133.904508",
    "decay_type_21": "stable",
    "iso_half_21": "stable",
    "iso_Z_21": "56",
    "iso_N_21": "78",
    "iso_A_21": "134",

    "iso_22": "Ba-135",
    "iso_mass_22": "134.905688",
    "decay_type_22": "stable",
    "iso_half_22": "stable",
    "iso_Z_22": "56",
    "iso_N_22": "79",
    "iso_A_22": "135",

    "iso_23": "Ba-136",
    "iso_mass_23": "135.904576",
    "decay_type_23": "stable",
    "iso_half_23": "stable",
    "iso_Z_23": "56",
    "iso_N_23": "80",
    "iso_A_23": "136",

    "iso_24": "Ba-137",
    "iso_mass_24": "136.905827",
    "decay_type_24": "stable",
    "iso_half_24": "stable",
    "iso_Z_24": "56",
    "iso_N_24": "81",
    "iso_A_24": "137",

    "iso_25": "Ba-138",
    "iso_mass_25": "137.905247",
    "decay_type_25": "stable",
    "iso_half_25": "stable",
    "iso_Z_25": "56",
    "iso_N_25": "82",
    "iso_A_25": "138",

    "iso_26": "Ba-139",
    "iso_mass_26": "138.908841",
    "decay_type_26": "B+",
    "iso_half_26": "83.1 min",
    "iso_Z_26": "56",
    "iso_N_26": "83",
    "iso_A_26": "139",

    "iso_27": "Ba-140",
    "iso_mass_27": "139.910605",
    "decay_type_27": "B-",
    "iso_half_27": "12.752 d",
    "iso_Z_27": "56",
    "iso_N_27": "84",
    "iso_A_27": "140",

    "iso_28": "Ba-141",
    "iso_mass_28": "140.914411",
    "decay_type_28": "B-",
    "iso_half_28": "18.27 min",
    "iso_Z_28": "56",
    "iso_N_28": "85",
    "iso_A_28": "141",

    "iso_29": "Ba-142",
    "iso_mass_29": "141.916453",
    "decay_type_29": "B-",
    "iso_half_29": "10.6 min",
    "iso_Z_29": "56",
    "iso_N_29": "86",
    "iso_A_29": "142",

    "iso_30": "Ba-143",
    "iso_mass_30": "142.920627",
    "decay_type_30": "B-",
    "iso_half_30": "14.5 s",
    "iso_Z_30": "56",
    "iso_N_30": "87",
    "iso_A_30": "143",

    "iso_31": "Ba-144",
    "iso_mass_31": "143.922953",
    "decay_type_31": "B-",
    "iso_half_31": "11.5 s",
    "iso_Z_31": "56",
    "iso_N_31": "88",
    "iso_A_31": "144",

    "iso_32": "Ba-145",
    "iso_mass_32": "144.92763",
    "decay_type_32": "B-",
    "iso_half_32": "4.3 s",
    "iso_Z_32": "56",
    "iso_N_32": "89",
    "iso_A_32": "145",

    "iso_33": "Ba-146",
    "iso_mass_33": "145.93022",
    "decay_type_33": "B-",
    "iso_half_33": "2.22 s",
    "iso_Z_33": "56",
    "iso_N_33": "90",
    "iso_A_33": "146",

    "iso_34": "Ba-147",
    "iso_mass_34": "146.93539",
    "decay_type_34": "B-",
    "iso_half_34": "1.52 s",
    "iso_Z_34": "56",
    "iso_N_34": "91",
    "iso_A_34": "147",

    "iso_35": "Ba-148",
    "iso_mass_35": "147.93833",
    "decay_type_35": "B-",
    "iso_half_35": "0.61 s",
    "iso_Z_35": "56",
    "iso_N_35": "92",
    "iso_A_35": "148",

    "iso_36": "Ba-149",
    "iso_mass_36": "148.94308",
    "decay_type_36": "B-",
    "iso_half_36": "0.34 s",
    "iso_Z_36": "56",
    "iso_N_36": "93",
    "iso_A_36": "149",

    "iso_37": "Ba-150",
    "iso_mass_37": "149.94625",
    "decay_type_37": "B-",
    "iso_half_37": "0.18 s",
    "iso_Z_37": "56",
    "iso_N_37": "94",
    "iso_A_37": "150"
  }
]