[
  {
    "wikilink": "https://en.wikipedia.org/wiki/Barium",
    "link": "https://upload.wikimedia.org/wikipedia/commons/1/16/Barium_unter_Argon_Schutzgas_Atmosph%C3%A4re.jpg",

    "element": "Barium",
    "short": "Ba",
    "element_year": "1772",
    "element_discovered_name": "Carl Wilhelm Scheele",
    "element_group": "Alkaline Earth Metals",
    "element_appearance": "Silvery Gray with a Pale Yellow Tint",
    "element_electrons": "56",
    "element_protons": "56",
    "element_neutron_common": "82",

    "electrical_type": "Conductor",
    "resistivity": "3.5",
    "resistivity_mult": "0.0000001",
    "magnetic_type": "Paramagnetic",
    "superconducting_point": "---",

    "element_atomic_number": "56",
    "element_atomicmass": "137.327 (u)",
    "element_density": "3.62 (g/cm^3)",
    "element_electronegativty": "0.89",
    "element_block": "s - block",
    "element_shells_electrons": "K2 L8 18 N18 O8 P2 Q0 R0",
    "element_model": "https://upload.wikimedia.org/wikipedia/commons/thumb/d/db/Electron_shell_056_Barium_-_no_label.svg/1280px-Electron_shell_056_Barium_-_no_label.svg.png",

    "element_boiling_kelvin": "2118 (K)",
    "element_boiling_celsius": "1845 (°C)",
    "element_boiling_fahrenheit": "3353 (°F)",
    "element_melting_kelvin": "1000 (K)",
    "element_melting_celsius": "727 (°C)",
    "element_melting_fahrenheit": "1341 (°F)",

    "element_electron_config": "6s^2",
    "element_ion_charge": "Ba^2+",
    "element_ionization_energy": "5.21170 (eV)",
    "element_atomic_radius_e": "215 (pm)",
    "element_atomic_radius": "253 (pm)",
    "element_covalent_radius": "198 (pm)",
    "element_van_der_waals": "268",

    "element_phase": "Solid",
    "element_fusion_heat": "7.12 (kJ/mol)",
    "element_specific_heat_capacity": "0.204 J/(g·K)",
    "element_vaporization_heat": "140 (kJ/mol)",

    "oxidation_state_neg": "",
    "oxidation_state_pos": "1 2",

    "iso_1": "Ba-133",
    "iso_mass_1": "132.9060075",
    "iso_half_1": "10.51 (Years)",
    "iso_Z_1": "56",
    "iso_N_1": "77",
    "iso_A_1": "133",

    "iso_2": "Ba-134",
    "iso_mass_2": "133.9045084",
    "iso_half_2": "Stable",
    "iso_Z_2": "56",
    "iso_N_2": "78",
    "iso_A_2": "134",

    "iso_3": "Ba-135",
    "iso_mass_3": "134.9056886",
    "iso_half_3": "Stable",
    "iso_Z_3": "56",
    "iso_N_3": "79",
    "iso_A_3": "135",

    "iso_4": "Ba-136",
    "iso_mass_4": "135.9045759",
    "iso_half_4": "Stable",
    "iso_Z_4": "56",
    "iso_N_4": "80",
    "iso_A_4": "136",

    "iso_5": "Ba-137",
    "iso_mass_5": "136.9058274",
    "iso_half_5": "Stable",
    "iso_Z_5": "56",
    "iso_N_5": "81",
    "iso_A_5": "137",

    "iso_6": "Ba-138",
    "iso_mass_6": "137.9052472",
    "iso_half_6": "Stable",
    "iso_Z_6": "56",
    "iso_N_6": "82",
    "iso_A_6": "138",

    "iso_7": "Ba-139",
    "iso_mass_7": "138.9088413",
    "iso_half_7": "83.06 (min)",
    "iso_Z_7": "56",
    "iso_N_7": "83",
    "iso_A_7": "139",

    "iso_8": "Ba-140",
    "iso_mass_8": "139.910605",
    "iso_half_8": "12.752 (days)",
    "iso_Z_8": "56",
    "iso_N_8": "84",
    "iso_A_8": "140",

    "iso_9": "Ba-141",
    "iso_mass_9": "140.914411",
    "iso_half_9": "18.27 (min)",
    "iso_Z_9": "56",
    "iso_N_9": "85",
    "iso_A_9": "141",

    "iso_10": "Ba-142",
    "iso_mass_10": "141.916453",
    "iso_half_10": "10.6 (min)",
    "iso_Z_10": "56",
    "iso_N_10": "86",
    "iso_A_10": "142",

    "iso_11": "Ba-143",
    "iso_mass_11": "142.920627",
    "iso_half_11": "14.5 (s)",
    "iso_Z_11": "56",
    "iso_N_11": "87",
    "iso_A_11": "143"
  }
]