[
  {
"element_code": "AALZV3J3DfxN8rXmUZZ",
    "wikilink": "https://en.wikipedia.org/wiki/Berkelium",
    "link": "https://upload.wikimedia.org/wikipedia/commons/b/b6/Berkelium_metal.jpg",
    "description": "Berkelium is a transuranic radioactive chemical element with the symbol Bk and atomic number 97. It is a member of the actinide and transuranium element series. It is named after the city of Berkeley, California, the location of the Lawrence Berkeley National Laboratory (then the University of California Radiation Laboratory) where it was discovered in December 1949. Berkelium was the fifth transuranium element discovered after neptunium, plutonium, curium and americium.",

    "element": "Berkelium",
    "short": "Bk",
    "element_year": "1949",
    "element_discovered_name": "Lawrence Berkeley National Laboratory",
    "element_group": "Actinide",
    "element_appearance": "Silvery",
    "element_electrons": "97",
    "element_protons": "97",
    "element_neutron_common": "150",

    "radioactive": "Yes",
    "neutron_cross_sectional": "710 (b)",

    "electrical_type": "---",
    "resistivity": "---",
    "resistivity_mult": "---",
    "magnetic_type": "---",
    "superconducting_point": "---",

    "element_atomic_number": "97",
    "element_atomicmass": "247 (u)",
    "element_density": "Beta: 13.25 (g/cm^3)",
    "element_electronegativty": "1.3",
    "element_block": "f - block",
    "element_shells_electrons": "K2 L8 M18 N32 O27 P8 Q2 R0",
    "element_model": "https://upload.wikimedia.org/wikipedia/commons/thumb/e/e1/Electron_shell_097_Berkelium_-_no_label.svg/800px-Electron_shell_097_Berkelium_-_no_label.svg.png",

    "element_boiling_kelvin": "Beta: 2900 (K)",
    "element_boiling_celsius": "Beta: 2627 (°C)",
    "element_boiling_fahrenheit": "Beta: 4760 (°F)",
    "element_melting_kelvin": "Beta: 1259 (K)",
    "element_melting_celsius": "Beta: 986 (°C)",
    "element_melting_fahrenheit": "Beta: 1807 (°F)",

    "element_electron_config": "5f^9, 7s^2",
    "element_ion_charge": "Bk^3+, Bk^4+",
    "element_ionization_energy1": "6.1979 (eV)",
    "element_atomic_radius_e": "--- (pm)",
    "element_atomic_radius": "--- (pm)",
    "element_covalent_radius": "---",
    "element_van_der_waals": "--- (pm)",

    "element_phase": "Solid",
    "element_fusion_heat": "--- (kJ/mol)",
    "element_specific_heat_capacity": "--- J/(g·K)",
    "element_vaporization_heat": "--- (kJ/mol)",

    "oxidation_state_neg": "",
    "oxidation_state_pos": "2 3 4 5",

    "cas_number": "7440-40-6",
    "eg_number": "231-150-1",

    
      "iso_1": "Berkelium-233",
      "iso_mass_1": "233",
      "decay_type_1": "α",
      "iso_half_1": "40 seconds",
      "iso_Z_1": "97",
      "iso_N_1": "136",
      "iso_A_1": "233",

      "iso_2": "Berkelium-234",
      "iso_mass_2": "234",
      "decay_type_2": "α",
      "iso_half_2": "20 seconds",
      "iso_Z_2": "97",
      "iso_N_2": "137",
      "iso_A_2": "234",

      "iso_3": "Berkelium-235",
      "iso_mass_3": "235",
      "decay_type_3": "α",
      "iso_half_3": "300 seconds",
      "iso_Z_3": "97",
      "iso_N_3": "138",
      "iso_A_3": "235",

      "iso_4": "Berkelium-236",
      "iso_mass_4": "236",
      "decay_type_4": "α",
      "iso_half_4": "26 seconds",
      "iso_Z_4": "97",
      "iso_N_4": "139",
      "iso_A_4": "236",

      "iso_5": "Berkelium-237",
      "iso_mass_5": "237",
      "decay_type_5": "α",
      "iso_half_5": "510 milliseconds",
      "iso_Z_5": "97",
      "iso_N_5": "140",
      "iso_A_5": "237",

      "iso_6": "Berkelium-238",
      "iso_mass_6": "238",
      "decay_type_6": "B+",
      "iso_half_6": "2.4 minutes",
      "iso_Z_6": "97",
      "iso_N_6": "141",
      "iso_A_6": "238",

      "iso_7": "Berkelium-239",
      "iso_mass_7": "239",
      "decay_type_7": "B+",
      "iso_half_7": "100 seconds",
      "iso_Z_7": "97",
      "iso_N_7": "142",
      "iso_A_7": "239",

      "iso_8": "Berkelium-240",
      "iso_mass_8": "240",
      "decay_type_8": "B+",
      "iso_half_8": "4.8 minutes",
      "iso_Z_8": "97",
      "iso_N_8": "143",
      "iso_A_8": "240",

      "iso_9": "Berkelium-241",
      "iso_mass_9": "241",
      "decay_type_9": "B+",
      "iso_half_9": "4.6 minutes",
      "iso_Z_9": "97",
      "iso_N_9": "144",
      "iso_A_9": "241",

      "iso_10": "Berkelium-242",
      "iso_mass_10": "242",
      "decay_type_10": "B+",
      "iso_half_10": "7 minutes",
      "iso_Z_10": "97",
      "iso_N_10": "145",
      "iso_A_10": "242",

      "iso_11": "Berkelium-243",
      "iso_mass_11": "243",
      "decay_type_11": "B+",
      "iso_half_11": "4.6 hours",
      "iso_Z_11": "97",
      "iso_N_11": "146",
      "iso_A_11": "243",

      "iso_12": "Berkelium-244",
      "iso_mass_12": "244",
      "decay_type_12": "B+",
      "iso_half_12": "5 hours",
      "iso_Z_12": "97",
      "iso_N_12": "147",
      "iso_A_12": "244",

      "iso_13": "Berkelium-245",
      "iso_mass_13": "245",
      "decay_type_13": "EC",
      "iso_half_13": "4.94 days",
      "iso_Z_13": "97",
      "iso_N_13": "148",
      "iso_A_13": "245",

      "iso_14": "Berkelium-246",
      "iso_mass_14": "246",
      "decay_type_14": "α",
      "iso_half_14": "1.8 days",
      "iso_Z_14": "97",
      "iso_N_14": "149",
      "iso_A_14": "246",

      "iso_15": "Berkelium-247",
      "iso_mass_15": "247",
      "decay_type_15": "α",
      "iso_half_15": "1380 years",
      "iso_Z_15": "97",
      "iso_N_15": "150",
      "iso_A_15": "247",

      "iso_16": "Berkelium-248",
      "iso_mass_16": "248",
      "decay_type_16": "α",
      "iso_half_16": "9 years",
      "iso_Z_16": "97",
      "iso_N_16": "151",
      "iso_A_16": "248",

      "iso_17": "Berkelium-249",
      "iso_mass_17": "249",
      "decay_type_17": "B-",
      "iso_half_17": "330 days",
      "iso_Z_17": "97",
      "iso_N_17": "152",
      "iso_A_17": "249",

      "iso_18": "Berkelium-250",
      "iso_mass_18": "250",
      "decay_type_18": "B-",
      "iso_half_18": "3.212 hours",
      "iso_Z_18": "97",
      "iso_N_18": "153",
      "iso_A_18": "250",

      "iso_19": "Berkelium-251",
      "iso_mass_19": "251",
      "decay_type_19": "B-",
      "iso_half_19": "55.6 minutes",
      "iso_Z_19": "97",
      "iso_N_19": "154",
      "iso_A_19": "251",

      "iso_20": "Berkelium-252",
      "iso_mass_20": "252",
      "decay_type_20": "B-",
      "iso_half_20": "1.8 minutes",
      "iso_Z_20": "97",
      "iso_N_20": "155",
      "iso_A_20": "252",

      "iso_21": "Berkelium-253",
      "iso_mass_21": "253",
      "decay_type_21": "B-",
      "iso_half_21": "60 minutes",
      "iso_Z_21": "97",
      "iso_N_21": "156",
      "iso_A_21": "253"
  }
]