[
  {
"element_code": "AAmBg7VEP8HrfnHoTZZ",
    "wikilink": "https://en.wikipedia.org/wiki/Bismuth",
    "link": "https://upload.wikimedia.org/wikipedia/commons/thumb/e/ef/Bismuth_crystals_and_1cm3_cube.jpg/800px-Bismuth_crystals_and_1cm3_cube.jpg",
    "description": "Bismuth is a chemical element with the symbol Bi and atomic number 83. It is a pentavalent post-transition metal and one of the pnictogens with chemical properties resembling its lighter group 15 siblings arsenic and antimony. Elemental bismuth may occur naturally, although its sulfide and oxide form important commercial ores. The free element is 86% as dense as lead. It is a brittle metal with a silvery white color when freshly produced, but surface oxidation can give it an iridescent tinge in numerous colours. Bismuth is the most naturally diamagnetic element, and has one of the lowest values of thermal conductivity among metals.",

    "element": "Bismuth",
    "short": "Bi",
    "element_year": "Deep Antiquity",
    "element_discovered_name": "---",
    "element_group": "Post-Transition Metal",
    "element_appearance": "brownish Silver",
    "element_electrons": "83",
    "element_protons": "83",
    "element_neutron_common": "126",

    "radioactive": "No",
    "neutron_cross_sectional": "0.034 (b)",

    "electrical_type": "Conductor",
    "resistivity": "1.3",
    "resistivity_mult": "0.000001",
    "magnetic_type": "Diamagnetic",
    "superconducting_point": "---",

    "element_atomic_number": "83",
    "element_atomicmass": "208.980 (u)",
    "element_density": "9.78 (g/cm^3)",
    "element_electronegativty": "2.02",
    "element_block": "p - block",
    "element_shells_electrons": "K2 L8 M18 N32 O18 P5 Q0 R0",
    "element_model": "https://upload.wikimedia.org/wikipedia/commons/thumb/b/b5/Electron_shell_083_Bismuth_-_no_label.svg/800px-Electron_shell_083_Bismuth_-_no_label.svg.png",

    "element_boiling_kelvin": "1837 (K)",
    "element_boiling_celsius": "1564 (°C)",
    "element_boiling_fahrenheit": "2847 (°F)",
    "element_melting_kelvin": "544.7 (K)",
    "element_melting_celsius": "271.5 (°C)",
    "element_melting_fahrenheit": "520.7 (°F)",

    "element_electron_config": "4f^14, 5d^10, 6s^2, 6p^3",
    "element_ion_charge": "Bi^3+, Bi^5+",
    "element_ionization_energy1": "7.2856 (eV)",
    "element_ionization_energy2": "16.69 (eV)",
    "element_ionization_energy3": "25.56 (eV)",
    "element_ionization_energy4": "45.3 (eV)",
    "element_ionization_energy5": "56.0 (eV)",
    "element_ionization_energy6": "88.3 (eV)",


    "element_atomic_radius_e": "160 (pm)",
    "element_atomic_radius": "143 (pm)",
    "element_covalent_radius": "207 (pm)",
    "element_van_der_waals": "146 (pm)",

    "element_phase": "Solid",
    "element_fusion_heat": "11.30 (kJ/mol)",
    "element_specific_heat_capacity": "0.122 J/(g·K)",
    "element_vaporization_heat": "179 (kJ/mol)",

    "oxidation_state_neg": "3 2 1",
    "oxidation_state_pos": "1 2 3 4 5",

    "speed_of_sound_gas": "---",
    "speed_of_sound_liquid": "---",
    "speed_of_sound_solid": "1790 (m/s) [20°C]",

    "mohs_hardness": "2.25",
    "vickers_hardness": "---",
    "brinell_hardness": "70-94.2",

    "earth_crust": "0.009",
    "urban_soils": "1.12",

    "young_modulus": "32 (GPa)",
    "poisson_ratio": "0.33",
    "bulk_modulus": "31 (GPa)",
    "shear_modulus": "12 (GPa)",

    "sea_water": "0.02",
    "crustal_rocks": "0.004",
    "sun": null,
    "solar_system": "0.14",

      "iso_1": "Bi-184",
      "iso_mass_1": "184.00135",
      "decay_type_1": "α",
      "iso_half_1": "13 ms",
      "iso_Z_1": "83",
      "iso_N_1": "101",
      "iso_A_1": "184",

      "iso_2": "Bi-185",
      "iso_mass_2": "184.99760",
      "decay_type_2": "p",
      "iso_half_2": "2.8 μs",
      "iso_Z_2": "83",
      "iso_N_2": "102",
      "iso_A_2": "185",

      "iso_3": "Bi-186",
      "iso_mass_3": "185.99662",
      "decay_type_3": "α",
      "iso_half_3": "14.8 ms",
      "iso_Z_3": "83",
      "iso_N_3": "103",
      "iso_A_3": "186",

      "iso_4": "Bi-187",
      "iso_mass_4": "186.99315",
      "decay_type_4": "α",
      "iso_half_4": "37 ms",
      "iso_Z_4": "83",
      "iso_N_4": "104",
      "iso_A_4": "187",

      "iso_5": "Bi-188",
      "iso_mass_5": "187.99228",
      "decay_type_5": "α",
      "iso_half_5": "60 ms",
      "iso_Z_5": "83",
      "iso_N_5": "105",
      "iso_A_5": "188",

      "iso_6": "Bi-189",
      "iso_mass_6": "188.98920",
      "decay_type_6": "α",
      "iso_half_6": "688 ms",
      "iso_Z_6": "83",
      "iso_N_6": "106",
      "iso_A_6": "189",

      "iso_7": "Bi-190",
      "iso_mass_7": "189.98863",
      "decay_type_7": "α",
      "iso_half_7": "6.3 s",
      "iso_Z_7": "83",
      "iso_N_7": "107",
      "iso_A_7": "190",

      "iso_8": "Bi-191",
      "iso_mass_8": "190.98579",
      "decay_type_8": "α",
      "iso_half_8": "12.4 s",
      "iso_Z_8": "83",
      "iso_N_8": "108",
      "iso_A_8": "191",

      "iso_9": "Bi-192",
      "iso_mass_9": "191.98546",
      "decay_type_9": "α",
      "iso_half_9": "32.9 y",
      "iso_Z_9": "83",
      "iso_N_9": "109",
      "iso_A_9": "192",

      "iso_10": "Bi-193",
      "iso_mass_10": "192.98296",
      "decay_type_10": "α",
      "iso_half_10": "7.6 s",
      "iso_Z_10": "83",
      "iso_N_10": "110",
      "iso_A_10": "193",

      "iso_11": "Bi-194",
      "iso_mass_11": "193.98283",
      "decay_type_11": "α",
      "iso_half_11": "1.5 s",
      "iso_Z_11": "83",
      "iso_N_11": "111",
      "iso_A_11": "194",

      "iso_12": "Bi-195",
      "iso_mass_12": "194.98065",
      "decay_type_12": "α",
      "iso_half_12": "183 ms",
      "iso_Z_12": "83",
      "iso_N_12": "112",
      "iso_A_12": "195",

      "iso_13": "Bi-196",
      "iso_mass_13": "195.98067",
      "decay_type_13": "α",
      "iso_half_13": "9.6 ms",
      "iso_Z_13": "83",
      "iso_N_13": "113",
      "iso_A_13": "196",

      "iso_14": "Bi-197",
      "iso_mass_14": "196.97886",
      "decay_type_14": "α",
      "iso_half_14": "19.9 ms",
      "iso_Z_14": "83",
      "iso_N_14": "114",
      "iso_A_14": "197",

      "iso_15": "Bi-198",
      "iso_mass_15": "197.97921",
      "decay_type_15": "α",
      "iso_half_15": "10.3 ms",
      "iso_Z_15": "83",
      "iso_N_15": "115",
      "iso_A_15": "198",

      "iso_16": "Bi-199",
      "iso_mass_16": "198.97767",
      "decay_type_16": "α",
      "iso_half_16": "1.5 ms",
      "iso_Z_16": "83",
      "iso_N_16": "116",
      "iso_A_16": "199",

      "iso_17": "Bi-200",
      "iso_mass_17": "199.97813",
      "decay_type_17": "α",
      "iso_half_17": "1.2 ms",
      "iso_Z_17": "83",
      "iso_N_17": "117",
      "iso_A_17": "200",

      "iso_18": "Bi-201",
      "iso_mass_18": "200.97684",
      "decay_type_18": "α",
      "iso_half_18": "0.9 ms",
      "iso_Z_18": "83",
      "iso_N_18": "118",
      "iso_A_18": "201",

      "iso_19": "Bi-202",
      "iso_mass_19": "201.97774",
      "decay_type_19": "α",
      "iso_half_19": "0.5 ms",
      "iso_Z_19": "83",
      "iso_N_19": "119",
      "iso_A_19": "202",

      "iso_20": "Bi-203",
      "iso_mass_20": "202.97687",
      "decay_type_20": "α",
      "iso_half_20": "0.3 ms",
      "iso_Z_20": "83",
      "iso_N_20": "120",
      "iso_A_20": "203",

      "iso_21": "Bi-204",
      "iso_mass_21": "203.97783",
      "decay_type_21": "α",
      "iso_half_21": "0.2 ms",
      "iso_Z_21": "83",
      "iso_N_21": "121",
      "iso_A_21": "204",

      "iso_22": "Bi-205",
      "iso_mass_22": "204.97739",
      "decay_type_22": "α",
      "iso_half_22": "0.1 ms",
      "iso_Z_22": "83",
      "iso_N_22": "122",
      "iso_A_22": "205",

      "iso_23": "Bi-206",
      "iso_mass_23": "205.97850",
      "decay_type_23": "α",
      "iso_half_23": "0.1 ms",
      "iso_Z_23": "83",
      "iso_N_23": "123",
      "iso_A_23": "206",

      "iso_24": "Bi-207",
      "iso_mass_24": "206.97847",
      "decay_type_24": "α",
      "iso_half_24": "0.1 ms",
      "iso_Z_24": "83",
      "iso_N_24": "124",
      "iso_A_24": "207",

      "iso_25": "Bi-208",
      "iso_mass_25": "207.97973",
      "decay_type_25": "α",
      "iso_half_25": "0.1 ms",
      "iso_Z_25": "83",
      "iso_N_25": "125",
      "iso_A_25": "208",

      "iso_26": "Bi-209",
      "iso_mass_26": "208.98040",
      "decay_type_26": "α",
      "iso_half_26": "2.01×10^19 y",
      "iso_Z_26": "83",
      "iso_N_26": "126",
      "iso_A_26": "209",

      "iso_27": "Bi-210",
      "iso_mass_27": "209.98412",
      "decay_type_27": "B-",
      "iso_half_27": "5.012 d",
      "iso_Z_27": "83",
      "iso_N_27": "127",
      "iso_A_27": "210",

      "iso_28": "Bi-211",
      "iso_mass_28": "210.98726",
      "decay_type_28": "α",
      "iso_half_28": "2.14 min",
      "iso_Z_28": "83",
      "iso_N_28": "128",
      "iso_A_28": "211",

      "iso_29": "Bi-212",
      "iso_mass_29": "211.99128",
      "decay_type_29": "α",
      "iso_half_29": "60.55 min",
      "iso_Z_29": "83",
      "iso_N_29": "129",
      "iso_A_29": "212",

      "iso_30": "Bi-213",
      "iso_mass_30": "212.99438",
      "decay_type_30": "α",
      "iso_half_30": "45.59 min",
      "iso_Z_30": "83",
      "iso_N_30": "130",
      "iso_A_30": "213",

      "iso_31": "Bi-214",
      "iso_mass_31": "213.99871",
      "decay_type_31": "α",
      "iso_half_31": "19.9 min",
      "iso_Z_31": "83",
      "iso_N_31": "131",
      "iso_A_31": "214",

      "iso_32": "Bi-215",
      "iso_mass_32": "215.00177",
      "decay_type_32": "α",
      "iso_half_32": "7.6 min",
      "iso_Z_32": "83",
      "iso_N_32": "132",
      "iso_A_32": "215",

      "iso_33": "Bi-216",
      "iso_mass_33": "216.00631",
      "decay_type_33": "α",
      "iso_half_33": "3.7 min",
      "iso_Z_33": "83",
      "iso_N_33": "133",
      "iso_A_33": "216",

      "iso_34": "Bi-217",
      "iso_mass_34": "217.00947",
      "decay_type_34": "α",
      "iso_half_34": "2.2 min",
      "iso_Z_34": "83",
      "iso_N_34": "134",
      "iso_A_34": "217",

      "iso_35": "Bi-218",
      "iso_mass_35": "218.01432",
      "decay_type_35": "α",
      "iso_half_35": "1.0 min",
      "iso_Z_35": "83",
      "iso_N_35": "135",
      "iso_A_35": "218",

      "iso_36": "Bi-219",
      "iso_mass_36": "219.01748",
      "decay_type_36": "α",
      "iso_half_36": "0.7 min",
      "iso_Z_36": "83",
      "iso_N_36": "136",
      "iso_A_36": "219",

      "iso_37": "Bi-220",
      "iso_mass_37": "220.02235",
      "decay_type_37": "α",
      "iso_half_37": "0.5 min",
      "iso_Z_37": "83",
      "iso_N_37": "137",
      "iso_A_37": "220",

      "iso_38": "Bi-221",
      "iso_mass_38": "221.02554",
      "decay_type_38": "α",
      "iso_half_38": "0.3 min",
      "iso_Z_38": "83",
      "iso_N_38": "138",
      "iso_A_38": "221",

      "iso_39": "Bi-222",
      "iso_mass_39": "222.03060",
      "decay_type_39": "α",
      "iso_half_39": "0.2 min",
      "iso_Z_39": "83",
      "iso_N_39": "139",
      "iso_A_39": "222",

      "iso_40": "Bi-223",
      "iso_mass_40": "223.03385",
      "decay_type_40": "α",
      "iso_half_40": "0.1 min",
      "iso_Z_40": "83",
      "iso_N_40": "140",
      "iso_A_40": "223"
  }
]