[
  {
    "wikilink": "https://en.wikipedia.org/wiki/Bismuth",
    "link": "https://upload.wikimedia.org/wikipedia/commons/thumb/e/ef/Bismuth_crystals_and_1cm3_cube.jpg/800px-Bismuth_crystals_and_1cm3_cube.jpg",
    "description": "Bismuth is a chemical element with the symbol Bi and atomic number 83. It is a pentavalent post-transition metal and one of the pnictogens with chemical properties resembling its lighter group 15 siblings arsenic and antimony. Elemental bismuth may occur naturally, although its sulfide and oxide form important commercial ores. The free element is 86% as dense as lead. It is a brittle metal with a silvery white color when freshly produced, but surface oxidation can give it an iridescent tinge in numerous colours. Bismuth is the most naturally diamagnetic element, and has one of the lowest values of thermal conductivity among metals.",

    "element": "Bismuth",
    "short": "Bi",
    "element_year": "Deep Antiquity",
    "element_discovered_name": "---",
    "element_group": "Post-Transition Metal",
    "element_appearance": "brownish Silver",
    "element_electrons": "83",
    "element_protons": "83",
    "element_neutron_common": "126",

    "radioactive": "No",
    "neutron_cross_sectional": "0.034 (b)",

    "electrical_type": "Conductor",
    "resistivity": "1.3",
    "resistivity_mult": "0.000001",
    "magnetic_type": "Diamagnetic",
    "superconducting_point": "---",

    "element_atomic_number": "83",
    "element_atomicmass": "208.980 (u)",
    "element_density": "9.78 (g/cm^3)",
    "element_electronegativty": "2.02",
    "element_block": "p - block",
    "element_shells_electrons": "K2 L8 M18 N32 O18 P5 Q0 R0",
    "element_model": "https://upload.wikimedia.org/wikipedia/commons/thumb/b/b5/Electron_shell_083_Bismuth_-_no_label.svg/800px-Electron_shell_083_Bismuth_-_no_label.svg.png",

    "element_boiling_kelvin": "1837 (K)",
    "element_boiling_celsius": "1564 (°C)",
    "element_boiling_fahrenheit": "2847 (°F)",
    "element_melting_kelvin": "544.7 (K)",
    "element_melting_celsius": "271.5 (°C)",
    "element_melting_fahrenheit": "520.7 (°F)",

    "element_electron_config": "4f^14, 5d^10, 6s^2, 6p^3",
    "element_ion_charge": "Bi^3+, Bi^5+",
    "element_ionization_energy": "7.2856 (eV)",
    "element_atomic_radius_e": "160 (pm)",
    "element_atomic_radius": "143 (pm)",
    "element_covalent_radius": "207 (pm)",
    "element_van_der_waals": "146 (pm)",

    "element_phase": "Solid",
    "element_fusion_heat": "11.30 (kJ/mol)",
    "element_specific_heat_capacity": "0.122 J/(g·K)",
    "element_vaporization_heat": "179 (kJ/mol)",

    "oxidation_state_neg": "3 2 1",
    "oxidation_state_pos": "1 2 3 4 5",

    "iso_1": "Bi-206",
    "iso_mass_1": "205.978499",
    "iso_half_1": "6.243 (days)",
    "iso_Z_1": "83",
    "iso_N_1": "123",
    "iso_A_1": "206",

    "iso_2": "Bi-207",
    "iso_mass_2": "206.9784707",
    "iso_half_2": "32.9 (years)",
    "iso_Z_2": "83",
    "iso_N_2": "124",
    "iso_A_2": "207",

    "iso_3": "Bi-208",
    "iso_mass_3": "207.9797422",
    "iso_half_3": "3.68×10^5 (years)",
    "iso_Z_3": "83",
    "iso_N_3": "125",
    "iso_A_3": "208",

    "iso_4": "Bi-209",
    "iso_mass_4": "208.9803987",
    "iso_half_4": "2.01×10^19 (years)",
    "iso_Z_4": "83",
    "iso_N_4": "126",
    "iso_A_4": "209",

    "iso_5": "Bi-210",
    "iso_mass_5": "209.9841204",
    "iso_half_5": "5.012 (days)",
    "iso_Z_5": "83",
    "iso_N_5": "127",
    "iso_A_5": "210",

    "iso_6": "Bi-211",
    "iso_mass_6": "210.987269",
    "iso_half_6": "2.14 (min)",
    "iso_Z_6": "83",
    "iso_N_6": "128",
    "iso_A_6": "211"
  }
]