[
  {
    "wikilink": "https://en.wikipedia.org/wiki/Cadmium",
    "link": "https://upload.wikimedia.org/wikipedia/commons/thumb/5/55/Silver_crystal.jpg/800px-Silver_crystal.jpg",

    "element": "Cadmium",
    "element_year": "1817",
    "element_discovered_name": "Karl Samuel Leberecht Hermann",
    "element_group": "Transition Metals",
    "element_appearance": "Silvery bluish-gray Metallic",
    "element_electrons": "48",
    "element_protons": "48",
    "element_neutron_common": "66",

    "element_atomic_number": "48",
    "element_atomicmass": "112.414 (u)",
    "element_density": "8.69 (g/cm^3)",
    "element_electronegativty": "1.69",
    "element_block": "d - block",
    "element_shells_electrons": "K2 L8 18 N18 O2 P0 Q0 R0",
    "element_model": "https://upload.wikimedia.org/wikipedia/commons/thumb/b/bd/Electron_shell_048_Cadmium_-_no_label.svg/800px-Electron_shell_048_Cadmium_-_no_label.svg.png",

    "element_boiling_kelvin": "1040 (K)",
    "element_boiling_celsius": "767 (°C)",
    "element_boiling_fahrenheit": "1413 (°F)",
    "element_melting_kelvin": "594.22 (K)",
    "element_melting_celsius": "321.07 (°C)",
    "element_melting_fahrenheit": "609.93 (°F)",

    "element_electron_config": "4d^10 5s^2",
    "element_ion_charge": "Cd^2+",
    "element_ionization_energy": "8.9938 (eV)",
    "element_atomic_radius": "161 (pm)",
    "element_covalent_radius": "148 (pm)",
    "element_van_der_waals": "158",

    "element_phase": "Solid",
    "element_fusion_heat": "6.21 (kJ/mol)",
    "element_specific_heat_capacity": "0.232 J/(g·K)",
    "element_vaporization_heat": "99.87 (kJ/mol)",

    "iso_1": "Cd-105",
    "iso_mass_1": "104.909468",
    "iso_half_1": "55.5 (min)",
    "iso_Z_1": "48",
    "iso_N_1": "57",
    "iso_A_1": "105",

    "iso_2": "Cd-106",
    "iso_mass_2": "105.906459",
    "iso_half_2": "Observationally Stable",
    "iso_Z_2": "48",
    "iso_N_2": "58",
    "iso_A_2": "106",

    "iso_3": "Cd-107",
    "iso_mass_3": "106.906618",
    "iso_half_3": "6.50 (hours)",
    "iso_Z_3": "48",
    "iso_N_3": "59",
    "iso_A_3": "107",

    "iso_4": "Cd-108",
    "iso_mass_4": "107.904184",
    "iso_half_4": "Observationally Stable",
    "iso_Z_4": "48",
    "iso_N_4": "60",
    "iso_A_4": "108",

    "iso_5": "Cd-109",
    "iso_mass_5": "108.904982",
    "iso_half_5": "461.4 (days)",
    "iso_Z_5": "48",
    "iso_N_5": "61",
    "iso_A_5": "109",

    "iso_6": "Cd-110",
    "iso_mass_6": "109.9030021",
    "iso_half_6": "Stable",
    "iso_Z_6": "48",
    "iso_N_6": "62",
    "iso_A_6": "110",

    "iso_7": "Cd-111",
    "iso_mass_7": "110.9041781",
    "iso_half_7": "Stable",
    "iso_Z_7": "48",
    "iso_N_7": "63",
    "iso_A_7": "111",

    "iso_8": "Cd-112",
    "iso_mass_8": "111.9027578",
    "iso_half_8": "Stable",
    "iso_Z_8": "48",
    "iso_N_8": "64",
    "iso_A_8": "112",

    "iso_9": "Cd-113",
    "iso_mass_9": "112.9044017",
    "iso_half_9": "8.04×10^15  (years)",
    "iso_Z_9": "48",
    "iso_N_9": "65",
    "iso_A_9": "113",

    "iso_10": "Cd-114",
    "iso_mass_10": "113.9033585",
    "iso_half_10": "Observationally Stable",
    "iso_Z_10": "48",
    "iso_N_10": "66",
    "iso_A_10": "114",

    "iso_11": "Cd-115",
    "iso_mass_11": "114.9054310",
    "iso_half_11": "53.46 (hours)",
    "iso_Z_11": "48",
    "iso_N_11": "67",
    "iso_A_11": "115"
  }
]