[
  {
"element_code": "AAK9hkQbjVkfnZYaXZZ",
    "wikilink": "https://en.wikipedia.org/wiki/Cadmium",
    "link": "https://upload.wikimedia.org/wikipedia/commons/thumb/5/55/Silver_crystal.jpg/800px-Silver_crystal.jpg",
    "description": "Cadmium is a chemical element with the symbol Cd and atomic number 48. This soft, silvery-white metal is chemically similar to the two other stable metals in group 12, zinc and mercury. Like zinc, it demonstrates oxidation state +2 in most of its compounds, and like mercury, it has a lower melting point than the transition metals in groups 3 through 11. Cadmium and its congeners in group 12 are often not considered transition metals, in that they do not have partly filled d or f electron shells in the elemental or common oxidation states. The average concentration of cadmium in Earth's crust is between 0.1 and 0.5 parts per million (ppm). It was discovered in 1817 simultaneously by Stromeyer and Hermann, both in Germany, as an impurity in zinc carbonate.",

    "element": "Cadmium",
    "short": "Cd",
    "element_year": "1817",
    "element_discovered_name": "Karl Samuel Leberecht Hermann",
    "element_group": "Transition Metals",
    "element_appearance": "Silvery bluish-gray Metallic",
    "element_electrons": "48",
    "element_protons": "48",
    "element_neutron_common": "66",

    "radioactive": "No",
    "neutron_cross_sectional": "2450 (b)",

    "electrical_type": "Conductor",
    "resistivity": "7",
    "resistivity_mult": "0.00000001",
    "magnetic_type": "Diamagnetic",
    "superconducting_point": "0.517",

    "element_atomic_number": "48",
    "element_atomicmass": "112.414 (u)",
    "element_density": "8.69 (g/cm^3)",
    "element_electronegativty": "1.69",
    "element_block": "d - block",
    "element_shells_electrons": "K2 L8 18 N18 O2 P0 Q0 R0",
    "element_model": "https://upload.wikimedia.org/wikipedia/commons/thumb/b/bd/Electron_shell_048_Cadmium_-_no_label.svg/800px-Electron_shell_048_Cadmium_-_no_label.svg.png",

    "element_boiling_kelvin": "1040 (K)",
    "element_boiling_celsius": "767 (°C)",
    "element_boiling_fahrenheit": "1413 (°F)",
    "element_melting_kelvin": "594.22 (K)",
    "element_melting_celsius": "321.07 (°C)",
    "element_melting_fahrenheit": "609.93 (°F)",

    "element_electron_config": "4d^10 5s^2",
    "element_ion_charge": "Cd^2+",
    "element_ionization_energy1": "8.9938 (eV)",
    "element_ionization_energy2": "16.90832 (eV)",
    "element_ionization_energy3": "37.48 (eV)",
    "element_atomic_radius_e": "155 (pm)",
    "element_atomic_radius": "161 (pm)",
    "element_covalent_radius": "148 (pm)",
    "element_van_der_waals": "158",

    "element_phase": "Solid",
    "element_fusion_heat": "6.21 (kJ/mol)",
    "element_specific_heat_capacity": "0.232 J/(g·K)",
    "element_vaporization_heat": "99.87 (kJ/mol)",

    "oxidation_state_neg": "2",
    "oxidation_state_pos": "1 2",

    "speed_of_sound_gas": "---",
    "speed_of_sound_liquid": "---",
    "speed_of_sound_solid": "2310 (m/s) [20°C]",

    "mohs_hardness": "2.0",
    "vickers_hardness": "---",
    "brinell_hardness": "203-220 (MPa)",

    "young_modulus": "50 (GPa)",
    "poisson_ratio": "0.30",
    "bulk_modulus": "42 (GPa)",
    "shear_modulus": "19 (GPa)",

    "earth_crust": "0.13",
    "earth_soils": "0.50",
    "urban_soils": "0.90",
    "sea_water": "0.11",
    "crustal_rocks": "0.18",
    "sun": "2.0",
    "solar_system": "1.6",

    "cas_number": "7440-43-9",
    "eg_number": "231-152-8",
    "health": 2,
    "flammability": 2,
    "instability": 0,

      "iso_1": "Cd-96",
      "iso_mass_1": "95.93977",
      "iso_half_1": "1 (s)",
      "decay_type_1": "B+",
      "iso_Z_1": "48",
      "iso_N_1": "48",
      "iso_A_1": "96",

      "iso_2": "Cd-97",
      "iso_mass_2": "96.93494",
      "iso_half_2": "2.8 (s)",
      "decay_type_2": "B+",
      "iso_Z_2": "48",
      "iso_N_2": "49",
      "iso_A_2": "97",

      "iso_3": "Cd-98",
      "iso_mass_3": "97.92740",
      "iso_half_3": "9.2 (s)",
      "decay_type_3": "B+",
      "iso_Z_3": "48",
      "iso_N_3": "50",
      "iso_A_3": "98",

      "iso_4": "Cd-99",
      "iso_mass_4": "98.92501",
      "iso_half_4": "16 (s)",
      "decay_type_4": "B+",
      "iso_Z_4": "48",
      "iso_N_4": "51",
      "iso_A_4": "99",

      "iso_5": "Cd-100",
      "iso_mass_5": "99.92029",
      "iso_half_5": "49.1 (s)",
      "decay_type_5": "B+",
      "iso_Z_5": "48",
      "iso_N_5": "52",
      "iso_A_5": "100",

      "iso_6": "Cd-101",
      "iso_mass_6": "100.91868",
      "iso_half_6": "1.36 (min)",
      "decay_type_6": "B+",
      "iso_Z_6": "48",
      "iso_N_6": "53",
      "iso_A_6": "101",

      "iso_7": "Cd-102",
      "iso_mass_7": "101.91446",
      "iso_half_7": "5.5 (min)",
      "decay_type_7": "B+",
      "iso_Z_7": "48",
      "iso_N_7": "54",
      "iso_A_7": "102",

      "iso_8": "Cd-103",
      "iso_mass_8": "102.913419",
      "iso_half_8": "7.3 (min)",
      "decay_type_8": "B+",
      "iso_Z_8": "48",
      "iso_N_8": "55",
      "iso_A_8": "103",

      "iso_9": "Cd-104",
      "iso_mass_9": "103.909849",
      "iso_half_9": "57.7 (min)",
      "decay_type_9": "B+",
      "iso_Z_9": "48",
      "iso_N_9": "56",
      "iso_A_9": "104",

    "iso_10": "Cd-105",
    "iso_mass_10": "104.909468",
    "iso_half_10": "55.5 (min)",
      "decay_type_10": "B+",
      "iso_Z_10": "48",
    "iso_N_10": "57",
    "iso_A_10": "105",

    "iso_11": "Cd-106",
    "iso_mass_11": "105.906459",
    "iso_half_11": "Observationally stable",
      "decay_type_11": "observationally stable",
      "iso_Z_11": "48",
    "iso_N_11": "58",
    "iso_A_11": "106",

    "iso_12": "Cd-107",
    "iso_mass_12": "106.906618",
    "iso_half_12": "6.50 (hours)",
      "decay_type_12": "B+",
      "iso_Z_12": "48",
    "iso_N_12": "59",
    "iso_A_12": "107",

    "iso_13": "Cd-108",
    "iso_mass_13": "107.904184",
    "iso_half_13": "Observationally Stable",
      "decay_type_13": "observationally stable",
      "iso_Z_13": "48",
    "iso_N_13": "60",
    "iso_A_13": "108",

    "iso_14": "Cd-109",
    "iso_mass_14": "108.904982",
    "iso_half_14": "461.4 (days)",
      "decay_type_14": "EC",
      "iso_Z_14": "48",
    "iso_N_14": "61",
    "iso_A_14": "109",

    "iso_15": "Cd-110",
    "iso_mass_15": "109.9030021",
    "iso_half_15": "Stable",
      "decay_type_15": "stable",
      "iso_Z_15": "48",
    "iso_N_15": "62",
    "iso_A_15": "110",

    "iso_16": "Cd-111",
    "iso_mass_16": "110.9041781",
    "iso_half_16": "Stable",
      "decay_type_16": "stable",
      "iso_Z_16": "48",
    "iso_N_16": "63",
    "iso_A_16": "111",

    "iso_17": "Cd-112",
    "iso_mass_17": "111.9027578",
    "iso_half_17": "Stable",
      "decay_type_17": "stable",
      "iso_Z_17": "48",
    "iso_N_17": "64",
    "iso_A_17": "112",

    "iso_18": "Cd-113",
    "iso_mass_18": "112.9044017",
    "iso_half_18": "8.04×10^15  (years)",
      "decay_type_18": "B-",
      "iso_Z_18": "48",
    "iso_N_18": "65",
    "iso_A_18": "113",

    "iso_19": "Cd-114",
    "iso_mass_19": "113.9033585",
    "iso_half_19": "Observationally Stable",
      "decay_type_19": "observationally stable",
      "iso_Z_19": "48",
    "iso_N_19": "66",
    "iso_A_19": "114",

      "iso_20": "Cd-115",
      "iso_mass_20": "114.9054310",
      "iso_half_20": "53.46 (hours)",
      "decay_type_20": "B-",
      "iso_Z_20": "48",
      "iso_N_20": "67",
      "iso_A_20": "115",

      "iso_21": "Cd-116",
      "iso_mass_21": "115.904756",
      "iso_half_21": "2.8×10^19 (years)",
      "decay_type_21": "B-",
      "iso_Z_21": "48",
      "iso_N_21": "68",
      "iso_A_21": "116",

      "iso_22": "Cd-117",
      "iso_mass_22": "116.907219",
      "iso_half_22": "2.49 (hours)",
      "decay_type_22": "B-",
      "iso_Z_22": "48",
      "iso_N_22": "69",
      "iso_A_22": "117",

      "iso_23": "Cd-118",
      "iso_mass_23": "117.906915",
      "iso_half_23": "50.3 (min)",
      "decay_type_23": "B-",
      "iso_Z_23": "48",
      "iso_N_23": "70",
      "iso_A_23": "118",

      "iso_24": "Cd-119",
      "iso_mass_24": "118.90992",
      "iso_half_24": "2.69 (min)",
      "decay_type_24": "B-",
      "iso_Z_24": "48",
      "iso_N_24": "71",
      "iso_A_24": "119",

      "iso_25": "Cd-120",
      "iso_mass_25": "119.90985",
      "iso_half_25": "50.80 (s)",
      "decay_type_25": "B-",
      "iso_Z_25": "48",
      "iso_N_25": "72",
      "iso_A_25": "120",

      "iso_26": "Cd-121",
      "iso_mass_26": "120.91298",
      "iso_half_26": "13.5 (s)",
      "decay_type_26": "B-",
      "iso_Z_26": "48",
      "iso_N_26": "73",
      "iso_A_26": "121",

      "iso_27": "Cd-122",
      "iso_mass_27": "121.91333",
      "iso_half_27": "5.24 (s)",
      "decay_type_27": "B-",
      "iso_Z_27": "48",
      "iso_N_27": "74",
      "iso_A_27": "122",

      "iso_28": "Cd-123",
      "iso_mass_28": "122.91700",
      "iso_half_28": "2.10 (s)",
      "decay_type_28": "B-",
      "iso_Z_28": "48",
      "iso_N_28": "75",
      "iso_A_28": "123",

      "iso_29": "Cd-124",
      "iso_mass_29": "123.91765",
      "iso_half_29": "1.25 (s)",
      "decay_type_29": "B-",
      "iso_Z_29": "48",
      "iso_N_29": "76",
      "iso_A_29": "124",

      "iso_30": "Cd-125",
      "iso_mass_30": "124.92125",
      "iso_half_30": "0.65 (s)",
      "decay_type_30": "B-",
      "iso_Z_30": "48",
      "iso_N_30": "77",
      "iso_A_30": "125",

      "iso_31": "Cd-126",
      "iso_mass_31": "125.92235",
      "iso_half_31": "0.515 (s)",
      "decay_type_31": "B-",
      "iso_Z_31": "48",
      "iso_N_31": "78",
      "iso_A_31": "126",

      "iso_32": "Cd-127",
      "iso_mass_32": "126.92644",
      "iso_half_32": "0.37 (s)",
      "decay_type_32": "B-",
      "iso_Z_32": "48",
      "iso_N_32": "79",
      "iso_A_32": "127",

      "iso_33": "Cd-128",
      "iso_mass_33": "127.92776",
      "iso_half_33": "0.28 (s)",
      "decay_type_33": "B-",
      "iso_Z_33": "48",
      "iso_N_33": "80",
      "iso_A_33": "128",

      "iso_34": "Cd-129",
      "iso_mass_34": "128.93215",
      "iso_half_34": "242 (ms)",
      "decay_type_34": "B-",
      "iso_Z_34": "48",
      "iso_N_34": "81",
      "iso_A_34": "129",

      "iso_35": "Cd-130",
      "iso_mass_35": "129.9339",
      "iso_half_35": "162 (ms)",
      "decay_type_35": "B-",
      "iso_Z_35": "48",
      "iso_N_35": "82",
      "iso_A_35": "130",

      "iso_36": "Cd-131",
      "iso_mass_36": "130.94067",
      "iso_half_36": "68 (ms)",
      "decay_type_36": "B-",
      "iso_Z_36": "48",
      "iso_N_36": "83",
      "iso_A_36": "131",

      "iso_37": "Cd-132",
      "iso_mass_37": "131.94555",
      "iso_half_37": "97 (ms)",
      "decay_type_37": "B-",
      "iso_Z_37": "48",
      "iso_N_37": "84",
      "iso_A_37": "132"
  }
]