[
  {
"element_code": "AANvodbURvuFEv2jtZZ",
    "wikilink": "https://en.wikipedia.org/wiki/Caesium",
    "link": "https://upload.wikimedia.org/wikipedia/commons/thumb/3/3d/Cesium.jpg/1920px-Cesium.jpg",
    "description": "Caesium (IUPAC spelling) (also spelled cesium in American English) is a chemical element with the symbol Cs and atomic number 55. It is a soft, silvery-golden alkali metal with a melting point of 28.5 °C (83.3 °F), which makes it one of only five elemental metals that are liquid at or near room temperature. Caesium has physical and chemical properties similar to those of rubidium and potassium. The most reactive of all metals, it is pyrophoric and reacts with water even at −116 °C (−177 °F). It is the least electronegative element, with a value of 0.79 on the Pauling scale. It has only one stable isotope, caesium-133. Caesium is mined mostly from pollucite, while the radioisotopes, especially caesium-137, a fission product, are extracted from waste produced by nuclear reactors.",

    "element": "Caesium",
    "short": "Cs",
    "element_year": "1860",
    "element_discovered_name": "Robert Bunsen",
    "element_group": "Alkali Metals",
    "element_appearance": "Pale Gold",
    "element_electrons": "55",
    "element_protons": "55",
    "element_neutron_common": "78",

    "radioactive": "No",
    "neutron_cross_sectional": "29 (b)",

    "electrical_type": "Conductor",
    "resistivity": "2",
    "resistivity_mult": "0.0000001",
    "magnetic_type": "Paramagnetic",
    "superconducting_point": "---",

    "element_atomic_number": "55",
    "element_atomicmass": "132.9055 (u)",
    "element_density": "1.93 (g/cm^3)",
    "element_electronegativty": "0.79",
    "element_block": "s - block",
    "element_shells_electrons": "K2 L8 18 N18 O8 P1 Q0 R0",
    "element_model": "https://upload.wikimedia.org/wikipedia/commons/thumb/a/a6/Electron_shell_055_Caesium_-_no_label.svg/1280px-Electron_shell_055_Caesium_-_no_label.svg.png",

    "element_boiling_kelvin": "944 (K)",
    "element_boiling_celsius": "671 (°C)",
    "element_boiling_fahrenheit": "1240 (°F)",
    "element_melting_kelvin": "301.7 (K)",
    "element_melting_celsius": "28.5 (°C)",
    "element_melting_fahrenheit": "83.3 (°F)",

    "element_electron_config": "6s^1",
    "element_ion_charge": "Cs^+",
    "element_ionization_energy1": "3.89390 (eV)",
    "element_ionization_energy2": "23.15745 (eV)",
    "element_atomic_radius_e": "265 (pm)",
    "element_atomic_radius": "298 (pm)",
    "element_covalent_radius": "225 (pm)",
    "element_van_der_waals": "343",

    "element_phase": "Solid",
    "element_fusion_heat": "2.09 (kJ/mol)",
    "element_specific_heat_capacity": "0.242 J/(g·K)",
    "element_vaporization_heat": "63.9 (kJ/mol)",

    "mohs_hardness": "0.2",
    "vickers_hardness": "---",
    "brinell_hardness": "0.147 (MPa)",

    "oxidation_state_neg": "1",
    "oxidation_state_pos": "1",

    "young_modulus": "1.7 (GPa)",
    "poisson_ratio": "---",
    "bulk_modulus": "1.6 (GPa)",
    "shear_modulus": "---",

    "earth_crust": "3.7",
    "earth_soils": "5.0",
    "sea_water": "0.30",
    "crustal_rocks": "1.6",
    "sun": null,
    "solar_system": "0.37",

      "iso_1": "Cs-112",
      "iso_mass_1": "111.95030",
      "decay_type_1": "p",
      "iso_half_1": "500 μs",
      "iso_Z_1": "55",
      "iso_N_1": "57",
      "iso_A_1": "112",

      "iso_2": "Cs-113",
      "iso_mass_2": "112.94449",
      "decay_type_2": "p",
      "iso_half_2": "16.7 μs",
      "iso_Z_2": "55",
      "iso_N_2": "58",
      "iso_A_2": "113",

      "iso_3": "Cs-114",
      "iso_mass_3": "113.94145",
      "decay_type_3": "B+",
      "iso_half_3": "570 ms",
      "iso_Z_3": "55",
      "iso_N_3": "59",
      "iso_A_3": "114",

      "iso_4": "Cs-115",
      "iso_mass_4": "114.93591",
      "decay_type_4": "B+",
      "iso_half_4": "1.4 s",
      "iso_Z_4": "55",
      "iso_N_4": "60",
      "iso_A_4": "115",

      "iso_5": "Cs-116",
      "iso_mass_5": "115.93337",
      "decay_type_5": "B+",
      "iso_half_5": "700 ms",
      "iso_Z_5": "55",
      "iso_N_5": "61",
      "iso_A_5": "116",

      "iso_6": "Cs-117",
      "iso_mass_6": "116.92867",
      "decay_type_6": "B+",
      "iso_half_6": "8.4 s",
      "iso_Z_6": "55",
      "iso_N_6": "62",
      "iso_A_6": "117",

      "iso_7": "Cs-118",
      "iso_mass_7": "117.92656",
      "decay_type_7": "B+",
      "iso_half_7": "14 s",
      "iso_Z_7": "55",
      "iso_N_7": "63",
      "iso_A_7": "118",

      "iso_8": "Cs-119",
      "iso_mass_8": "118.92238",
      "decay_type_8": "B+",
      "iso_half_8": "43 s",
      "iso_Z_8": "55",
      "iso_N_8": "64",
      "iso_A_8": "119",

      "iso_9": "Cs-120",
      "iso_mass_9": "119.92068",
      "decay_type_9": "B+",
      "iso_half_9": "61.2 s",
      "iso_Z_9": "55",
      "iso_N_9": "65",
      "iso_A_9": "120",

      "iso_10": "Cs-121",
      "iso_mass_10": "120.91723",
      "decay_type_10": "B+",
      "iso_half_10": "155 s",
      "iso_Z_10": "55",
      "iso_N_10": "66",
      "iso_A_10": "121",

      "iso_11": "Cs-122",
      "iso_mass_11": "121.91611",
      "decay_type_11": "B+",
      "iso_half_11": "21.18 s",
      "iso_Z_11": "55",
      "iso_N_11": "67",
      "iso_A_11": "122",

      "iso_12": "Cs-123",
      "iso_mass_12": "122.91299",
      "decay_type_12": "B+",
      "iso_half_12": "5.88 min",
      "iso_Z_12": "55",
      "iso_N_12": "68",
      "iso_A_12": "123",

      "iso_13": "Cs-124",
      "iso_mass_13": "123.91226",
      "decay_type_13": "B+",
      "iso_half_13": "30.9 s",
      "iso_Z_13": "55",
      "iso_N_13": "69",
      "iso_A_13": "124",

      "iso_14": "Cs-125",
      "iso_mass_14": "124.90973",
      "decay_type_14": "B+",
      "iso_half_14": "46.7 s",
      "iso_Z_14": "55",
      "iso_N_14": "70",
      "iso_A_14": "125",

      "iso_15": "Cs-126",
      "iso_mass_15": "125.90945",
      "decay_type_15": "B+",
      "iso_half_15": "1.64 min",
      "iso_Z_15": "55",
      "iso_N_15": "71",
      "iso_A_15": "126",

      "iso_16": "Cs-127",
      "iso_mass_16": "126.90741",
      "decay_type_16": "B+",
      "iso_half_16": "6.25 min",
      "iso_Z_16": "55",
      "iso_N_16": "72",
      "iso_A_16": "127",

      "iso_17": "Cs-128",
      "iso_mass_17": "127.90775",
      "decay_type_17": "B+",
      "iso_half_17": "3.62 min",
      "iso_Z_17": "55",
      "iso_N_17": "73",
      "iso_A_17": "128",

      "iso_18": "Cs-129",
      "iso_mass_18": "128.90606",
      "decay_type_18": "B+",
      "iso_half_18": "32.06 h",
      "iso_Z_18": "55",
      "iso_N_18": "74",
      "iso_A_18": "129",

      "iso_19": "Cs-130",
      "iso_mass_19": "129.90671",
      "decay_type_19": "B+",
      "iso_half_19": "29.21 min",
      "iso_Z_19": "55",
      "iso_N_19": "75",
      "iso_A_19": "130",

      "iso_20": "Cs-131",
      "iso_mass_20": "130.90508",
      "decay_type_20": "B+",
      "iso_half_20": "9.7 d",
      "iso_Z_20": "55",
      "iso_N_20": "76",
      "iso_A_20": "131",

      "iso_21": "Cs-132",
      "iso_mass_21": "131.90643",
      "decay_type_21": "B+",
      "iso_half_21": "6.48 d",
      "iso_Z_21": "55",
      "iso_N_21": "77",
      "iso_A_21": "132",

      "iso_22": "Cs-133",
      "iso_mass_22": "132.90545",
      "decay_type_22": "stable",
      "iso_half_22": "stable",
      "iso_Z_22": "55",
      "iso_N_22": "78",
      "iso_A_22": "133",

      "iso_23": "Cs-134",
      "iso_mass_23": "133.90672",
      "decay_type_23": "B-",
      "iso_half_23": "2.065 y",
      "iso_Z_23": "55",
      "iso_N_23": "79",
      "iso_A_23": "134",

      "iso_24": "Cs-135",
      "iso_mass_24": "134.90597",
      "decay_type_24": "B-",
      "iso_half_24": "2.3×10^6 y",
      "iso_Z_24": "55",
      "iso_N_24": "80",
      "iso_A_24": "135",

      "iso_25": "Cs-136",
      "iso_mass_25": "135.90731",
      "decay_type_25": "B-",
      "iso_half_25": "13.16 d",
      "iso_Z_25": "55",
      "iso_N_25": "81",
      "iso_A_25": "136",

      "iso_26": "Cs-137",
      "iso_mass_26": "136.90708",
      "decay_type_26": "B-",
      "iso_half_26": "30.17 y",
      "iso_Z_26": "55",
      "iso_N_26": "82",
      "iso_A_26": "137",

      "iso_27": "Cs-138",
      "iso_mass_27": "137.91101",
      "decay_type_27": "B-",
      "iso_half_27": "33.41 min",
      "iso_Z_27": "55",
      "iso_N_27": "83",
      "iso_A_27": "138",

      "iso_28": "Cs-139",
      "iso_mass_28": "138.91336",
      "decay_type_28": "B-",
      "iso_half_28": "9.27 min",
      "iso_Z_28": "55",
      "iso_N_28": "84",
      "iso_A_28": "139",

      "iso_29": "Cs-140",
      "iso_mass_29": "139.91728",
      "decay_type_29": "B-",
      "iso_half_29": "63.7 s",
      "iso_Z_29": "55",
      "iso_N_29": "85",
      "iso_A_29": "140",

      "iso_30": "Cs-141",
      "iso_mass_30": "140.92004",
      "decay_type_30": "B-",
      "iso_half_30": "24.84 s",
      "iso_Z_30": "55",
      "iso_N_30": "86",
      "iso_A_30": "141",

      "iso_31": "Cs-142",
      "iso_mass_31": "141.9243",
      "decay_type_31": "B-",
      "iso_half_31": "1.68 s",
      "iso_Z_31": "55",
      "iso_N_31": "87",
      "iso_A_31": "142",

      "iso_32": "Cs-143",
      "iso_mass_32": "142.92712",
      "decay_type_32": "B-",
      "iso_half_32": "1.02 s",
      "iso_Z_32": "55",
      "iso_N_32": "88",
      "iso_A_32": "143",

      "iso_33": "Cs-144",
      "iso_mass_33": "143.9325",
      "decay_type_33": "B-",
      "iso_half_33": "200 ms",
      "iso_Z_33": "55",
      "iso_N_33": "89",
      "iso_A_33": "144",

      "iso_34": "Cs-145",
      "iso_mass_34": "144.93553",
      "decay_type_34": "B-",
      "iso_half_34": "180 ms",
      "iso_Z_34": "55",
      "iso_N_34": "90",
      "iso_A_34": "145",

      "iso_35": "Cs-146",
      "iso_mass_35": "145.94105",
      "decay_type_35": "B-",
      "iso_half_35": "32 ms",
      "iso_Z_35": "55",
      "iso_N_35": "91",
      "iso_A_35": "146",

      "iso_36": "Cs-147",
      "iso_mass_36": "146.94445",
      "decay_type_36": "B-",
      "iso_half_36": "24 ms",
      "iso_Z_36": "55",
      "iso_N_36": "92",
      "iso_A_36": "147",

      "iso_37": "Cs-148",
      "iso_mass_37": "147.95044",
      "decay_type_37": "B-",
      "iso_half_37": "10 ms",
      "iso_Z_37": "55",
      "iso_N_37": "93",
      "iso_A_37": "148",

      "iso_38": "Cs-149",
      "iso_mass_38": "148.95426",
      "decay_type_38": "B-",
      "iso_half_38": "7 ms",
      "iso_Z_38": "55",
      "iso_N_38": "94",
      "iso_A_38": "149",

      "iso_39": "Cs-150",
      "iso_mass_39": "149.96057",
      "decay_type_39": "B-",
      "iso_half_39": "3 ms",
      "iso_Z_39": "55",
      "iso_N_39": "95",
      "iso_A_39": "150"
  }
]