[
  {
"element_code": "AAemL6grnPpqsFWg6ZZ",
    "wikilink": "https://en.wikipedia.org/wiki/Californium",
    "link": "https://upload.wikimedia.org/wikipedia/commons/9/93/Californium.jpg",
    "description": "Californium is a radioactive chemical element with the symbol Cf and atomic number 98. The element was first synthesized in 1950 at the Lawrence Berkeley National Laboratory (then the University of California Radiation Laboratory), by bombarding curium with alpha particles (helium-4 ions). It is an actinide element, the sixth transuranium element to be synthesized, and has the second-highest atomic mass of all the elements that have been produced in amounts large enough to see with the unaided eye (after einsteinium). The element was named after the university and the state of California.",

    "element": "Californium",
    "short": "Cf",
    "element_year": "1950",
    "element_discovered_name": "Lawrence Berkeley National Laboratory",
    "element_group": "Actinide",
    "element_appearance": "Silvery",
    "element_electrons": "98",
    "element_protons": "98",
    "element_neutron_common": "153",

    "radioactive": "Yes",
    "neutron_cross_sectional": "2900 (b)",

    "electrical_type": "---",
    "resistivity": "---",
    "resistivity_mult": "---",
    "magnetic_type": "---",
    "superconducting_point": "---",

    "element_atomic_number": "98",
    "element_atomicmass": "251 (u)",
    "element_density": "15.1 (g/cm^3)",
    "element_electronegativty": "1.3",
    "element_block": "f - block",
    "element_shells_electrons": "K2 L8 M18 N32 O28 P8 Q2 R0",
    "element_model": "https://upload.wikimedia.org/wikipedia/commons/thumb/5/56/Electron_shell_098_Californium_-_no_label.svg/800px-Electron_shell_098_Californium_-_no_label.svg.png",

    "element_boiling_kelvin": "1743 (K)",
    "element_boiling_celsius": "1470 (°C)",
    "element_boiling_fahrenheit": "2678 (°F)",
    "element_melting_kelvin": "1173 (K)",
    "element_melting_celsius": "900 (°C)",
    "element_melting_fahrenheit": "1652 (°F)",

    "element_electron_config": "5f^10, 7s^2",
    "element_ion_charge": "Cf^3+",
    "element_ionization_energy1": "6.2817 (eV)",
    "element_atomic_radius_e": "--- (pm)",
    "element_atomic_radius": "--- (pm)",
    "element_covalent_radius": "---",
    "element_van_der_waals": "--- (pm)",

    "element_phase": "Solid",
    "element_fusion_heat": "--- (kJ/mol)",
    "element_specific_heat_capacity": "--- J/(g·K)",
    "element_vaporization_heat": "--- (kJ/mol)",

    "oxidation_state_neg": "",
    "oxidation_state_pos": "2 3 4 5",

    "cas_number": "7440-71-3",
    "eg_number": "231-179-6",

      "iso_1": "Californium-237",
      "iso_mass_1": "237",
      "decay_type_1": "α",
      "iso_half_1": "0.8 seconds",
      "iso_Z_1": "98",
      "iso_N_1": "139",
      "iso_A_1": "237",

      "iso_2": "Californium-238",
      "iso_mass_2": "238",
      "decay_type_2": "SF",
      "iso_half_2": "21 milliseconds",
      "iso_Z_2": "98",
      "iso_N_2": "140",
      "iso_A_2": "238",

      "iso_3": "Californium-239",
      "iso_mass_3": "239",
      "decay_type_3": "α",
      "iso_half_3": "28 seconds",
      "iso_Z_3": "98",
      "iso_N_3": "141",
      "iso_A_3": "239",

      "iso_4": "Californium-240",
      "iso_mass_4": "240",
      "decay_type_4": "α",
      "iso_half_4": "40.3 seconds",
      "iso_Z_4": "98",
      "iso_N_4": "142",
      "iso_A_4": "240",

      "iso_5": "Californium-241",
      "iso_mass_5": "241",
      "decay_type_5": "B+",
      "iso_half_5": "2.35 minutes",
      "iso_Z_5": "98",
      "iso_N_5": "143",
      "iso_A_5": "241",

      "iso_6": "Californium-242",
      "iso_mass_6": "242",
      "decay_type_6": "α",
      "iso_half_6": "3.49 minutes",
      "iso_Z_6": "98",
      "iso_N_6": "144",
      "iso_A_6": "242",

      "iso_7": "Californium-243",
      "iso_mass_7": "243",
      "decay_type_7": "B+",
      "iso_half_7": "10.8 minutes",
      "iso_Z_7": "98",
      "iso_N_7": "145",
      "iso_A_7": "243",

      "iso_8": "Californium-244",
      "iso_mass_8": "244",
      "decay_type_8": "α",
      "iso_half_8": "19.5 minutes",
      "iso_Z_8": "98",
      "iso_N_8": "146",
      "iso_A_8": "244",

      "iso_9": "Californium-245",
      "iso_mass_9": "245",
      "decay_type_9": "B+",
      "iso_half_9": "45 minutes",
      "iso_Z_9": "98",
      "iso_N_9": "147",
      "iso_A_9": "245",

      "iso_10": "Californium-246",
      "iso_mass_10": "246",
      "decay_type_10": "α",
      "iso_half_10": "35.7 hours",
      "iso_Z_10": "98",
      "iso_N_10": "148",
      "iso_A_10": "246",

      "iso_11": "Californium-247",
      "iso_mass_11": "247",
      "decay_type_11": "EC",
      "iso_half_11": "3.11 hours",
      "iso_Z_11": "98",
      "iso_N_11": "149",
      "iso_A_11": "247",

      "iso_12": "Californium-248",
      "iso_mass_12": "248",
      "decay_type_12": "α",
      "iso_half_12": "333.5 days",
      "iso_Z_12": "98",
      "iso_N_12": "150",
      "iso_A_12": "248",

      "iso_13": "Californium-249",
      "iso_mass_13": "249",
      "decay_type_13": "α",
      "iso_half_13": "351 years",
      "iso_Z_13": "98",
      "iso_N_13": "151",
      "iso_A_13": "249",

      "iso_14": "Californium-250",
      "iso_mass_14": "250",
      "decay_type_14": "α",
      "iso_half_14": "13.08 years",
      "iso_Z_14": "98",
      "iso_N_14": "152",
      "iso_A_14": "250",

      "iso_15": "Californium-251",
      "iso_mass_15": "251",
      "decay_type_15": "α",
      "iso_half_15": "898 years",
      "iso_Z_15": "98",
      "iso_N_15": "153",
      "iso_A_15": "251",

      "iso_16": "Californium-252",
      "iso_mass_16": "252",
      "decay_type_16": "α",
      "iso_half_16": "2.645 years",
      "iso_Z_16": "98",
      "iso_N_16": "154",
      "iso_A_16": "252",

      "iso_17": "Californium-253",
      "iso_mass_17": "253",
      "decay_type_17": "B-",
      "iso_half_17": "17.81 days",
      "iso_Z_17": "98",
      "iso_N_17": "155",
      "iso_A_17": "253",

      "iso_18": "Californium-254",
      "iso_mass_18": "254",
      "decay_type_18": "SF",
      "iso_half_18": "60.5 days",
      "iso_Z_18": "98",
      "iso_N_18": "156",
      "iso_A_18": "254",

      "iso_19": "Californium-255",
      "iso_mass_19": "255",
      "decay_type_19": "B-",
      "iso_half_19": "85 minutes",
      "iso_Z_19": "98",
      "iso_N_19": "157",
      "iso_A_19": "255",

      "iso_20": "Californium-256",
      "iso_mass_20": "256",
      "decay_type_20": "SF",
      "iso_half_20": "12.3 minutes",
      "iso_Z_20": "98",
      "iso_N_20": "158",
      "iso_A_20": "256"
  }
]