[
  {
"element_code": "AA28a4iJUA6QdGtoJZZ",
    "wikilink": "https://en.wikipedia.org/wiki/Carbon",
    "link": "https://upload.wikimedia.org/wikipedia/commons/f/f0/Graphite-and-diamond-with-scale.jpg",
    "description": "Carbon (from Latin: carbo \"coal\") is a chemical element with the symbol C and atomic number 6. It is nonmetallic and tetravalent—making four electrons available to form covalent chemical bonds. It belongs to group 14 of the periodic table. Carbon makes up only about 0.025 percent of Earth’s crust. Three isotopes occur naturally, C-12 and C-13 being stable, while C-14 is a radionuclide, decaying with a half-life of about 5,730 years. Carbon is one of the few elements known since antiquity.",

    "element": "Carbon",
    "short": "C",
    "element_year": "Deep Antiquity",
    "element_discovered_name": "---",
    "element_group": "Other Nonmetal",
    "element_appearance": "Graphite: Black, Diamond: Clear",
    "element_electrons": "6",
    "element_protons": "6",
    "element_neutron_common": "6",

    "radioactive": "No",
    "neutron_cross_sectional": "0.0035 (b)",

    "electrical_type": "Conductor",
    "resistivity": "1",
    "resistivity_mult": "0.00001",
    "magnetic_type": "Diamagnetic",
    "superconducting_point": "---",

    "element_atomic_number": "6",
    "element_atomicmass": "12.011 (u)",
    "element_density": "2.2 (g/cm^3)",
    "element_electronegativty": "2.55",
    "element_block": "p - block",
    "element_shells_electrons": "K2 L4 M0 N0 O0 P0 Q0 R0",
    "element_model": "https://upload.wikimedia.org/wikipedia/commons/thumb/9/9f/Electron_shell_006_Carbon_%28polyatomic_nonmetal%29_-_no_label.svg/1280px-Electron_shell_006_Carbon_%28polyatomic_nonmetal%29_-_no_label.svg.png",

    "element_sublimation_kelvin": "3915 (K)",
    "element_sublimation_celsius": "3642 (°C)",
    "element_sublimation_fahrenheit": "6588 (°F)",

    "element_electron_config": "2s^2 2p^2",
    "element_ion_charge": "---",
    "element_ionization_energy1": "11.26030 (eV)",
    "element_ionization_energy2": "24.38332 (eV)",
    "element_ionization_energy3": "47.8878 (eV)",
    "element_ionization_energy4": "64.4939 (eV)",
    "element_ionization_energy5": "392.087 (eV)",
    "element_ionization_energy6": "489.99334 (eV)",
    "element_atomic_radius_e": "70 (pm)",
    "element_atomic_radius": "67 (pm)",
    "element_covalent_radius": "77 (pm)",
    "element_van_der_waals": "170 (pm)",

    "element_phase": "Solid",
    "element_fusion_heat": "117 (kJ/mol)",
    "element_specific_heat_capacity": "0.709 J/(g·K)",
    "element_vaporization_heat": "715 (kJ/mol)",

    "oxidation_state_neg": "4 3 2 1 0",
    "oxidation_state_pos": "1 2 3 4",

    "speed_of_sound_gas": "---",
    "speed_of_sound_liquid": "---",
    "speed_of_sound_solid": "18350 (m/s)",

    "young_modulus": "---",
    "poisson_ratio": "---",
    "bulk_modulus": "33 (GPa)",
    "shear_modulus": "---",

    "mohs_hardness": "0.5 (graphite), 10.0 (diamond)",
    "vickers_hardness": "---",
    "brinell_hardness": "---",

    "iso_1": "C-8",
    "iso_mass_1": "8.037643",
    "iso_half_1": "3.5×10^−21 (s)",
    "decay_type_1": "2p",
    "iso_Z_1": "6",
    "iso_N_1": "2",
    "iso_A_1": "8",

    "iso_2": "C-9",
    "iso_mass_2": "9.0310372",
    "iso_half_2": "126.5 (ms)",
    "decay_type_2": "B+",
    "iso_Z_2": "6",
    "iso_N_2": "3",
    "iso_A_2": "9",

    "iso_3": "C-10",
    "iso_mass_3": "10.01685322",
    "iso_half_3": "19.3009 (s)",
    "decay_type_3": "B+",
    "iso_Z_3": "6",
    "iso_N_3": "4",
    "iso_A_3": "10",

    "iso_4": "C-11",
    "iso_mass_4": "11.01143260",
    "iso_half_4": "20.364 (min)",
    "decay_type_4": "B+",
    "iso_Z_4": "6",
    "iso_N_4": "5",
    "iso_A_4": "11",

    "iso_5": "C-12",
    "iso_mass_5": "12.00000000",
    "iso_half_5": "Stable",
    "decay_type_5": "stable",
    "iso_Z_5": "6",
    "iso_N_5": "6",
    "iso_A_5": "12",

    "iso_6": "C-13",
    "iso_mass_6": "13.00335483521",
    "iso_half_6": "Stable",
    "decay_type_6": "stable",
    "iso_Z_6": "6",
    "iso_N_6": "7",
    "iso_A_6": "13",

    "iso_7": "C-14",
    "iso_mass_7": "14.003241988",
    "iso_half_7": "5730 (Years)",
    "decay_type_7": "B-",
    "iso_Z_7": "6",
    "iso_N_7": "8",
    "iso_A_7": "14",

    "iso_8": "C-15",
    "iso_mass_8": "15.0105993",
    "iso_half_8": "2.449 (s)",
    "decay_type_8": "B-",
    "iso_Z_8": "6",
    "iso_N_8": "9",
    "iso_A_8": "15",

    "iso_9": "C-16",
    "iso_mass_9": "16.014701",
    "iso_half_9": "0.747 (s)",
    "decay_type_9": "B-",
    "iso_Z_9": "6",
    "iso_N_9": "10",
    "iso_A_9": "16",

    "iso_10": "C-17",
    "iso_mass_10": "17.022579",
    "iso_half_10": "193 (ms)",
    "decay_type_10": "B-",
    "iso_Z_10": "6",
    "iso_N_10": "11",
    "iso_A_10": "17",

    "iso_11": "C-18",
    "iso_mass_11": "18.02675",
    "iso_half_11": "92 (ms)",
    "decay_type_11": "B-",
    "iso_Z_11": "6",
    "iso_N_11": "12",
    "iso_A_11": "18",

    "iso_12": "C-19",
    "iso_mass_12": "19.03480",
    "iso_half_12": "46.2 (ms)",
    "decay_type_12": "B-",
    "iso_Z_12": "6",
    "iso_N_12": "13",
    "iso_A_12": "19",

    "iso_13": "C-20",
    "iso_mass_13": "20.04026",
    "iso_half_13": "16 (ms)",
    "decay_type_13": "B-",
    "iso_Z_13": "6",
    "iso_N_13": "14",
    "iso_A_13": "20",

    "iso_14": "C-21",
    "iso_mass_14": "21.04900",
    "iso_half_14": "<30 (ms)",
    "decay_type_14": "n",
    "iso_Z_14": "6",
    "iso_N_14": "15",
    "iso_A_14": "21",

    "iso_15": "C-22",
    "iso_mass_15": "22.05755",
    "iso_half_15": "6.2 (ms)",
    "decay_type_15": "B-",
    "iso_Z_15": "6",
    "iso_N_15": "16",
    "iso_A_15": "22"
  }
]