[
  {
"element_code": "AABKoXnZiuBC5xiJTZZ",
    "wikilink": "https://en.wikipedia.org/wiki/Cerium",
    "link": "https://upload.wikimedia.org/wikipedia/commons/0/0d/Cerium2.jpg",
    "description": "Cerium is a chemical element with the symbol Ce and atomic number 58. Cerium is a soft, ductile and silvery-white metal that tarnishes when exposed to air, and it is soft enough to be cut with a knife. Cerium is the second element in the lanthanide series, and while it often shows the +3 oxidation state characteristic of the series, it also has a stable +4 state that does not oxidize water. It is also considered one of the rare-earth elements. Cerium has no biological role in humans and is not very toxic.",

    "element": "Cerium",
    "short": "Ce",
    "element_year": "1803",
    "element_discovered_name": "Martin Heinrich Klaproth",
    "element_group": "Lanthanoids",
    "element_appearance": "Silvery White",
    "element_electrons": "58",
    "element_protons": "58",
    "element_neutron_common": "82",

    "radioactive": "No",
    "neutron_cross_sectional": "0.6 (b)",

    "electrical_type": "Conductor",
    "resistivity": "7.4",
    "resistivity_mult": "0.0000001",
    "magnetic_type": "Paramagnetic",
    "superconducting_point": "0.022",

    "element_atomic_number": "58",
    "element_atomicmass": "140.116 (u)",
    "element_density": "6.770 (g/cm^3)",
    "element_electronegativty": "1.12",
    "element_block": "f - block",
    "element_shells_electrons": "K2 L8 18 N19 O9 P2 Q0 R0",
    "element_model": "https://upload.wikimedia.org/wikipedia/commons/thumb/e/ea/Electron_shell_058_Cerium_-_no_label.svg/1280px-Electron_shell_058_Cerium_-_no_label.svg.png",

    "element_boiling_kelvin": "1068 (K)",
    "element_boiling_celsius": "795 (°C)",
    "element_boiling_fahrenheit": "1463 (°F)",
    "element_melting_kelvin": "3716 (K)",
    "element_melting_celsius": "3443 (°C)",
    "element_melting_fahrenheit": "6229 (°F)",

    "element_electron_config": "4f^1 5d^1 6s^2",
    "element_ion_charge": "Ce^3+",
    "element_ionization_energy1": "5.5387 (eV)",
    "element_ionization_energy2": "10.85 (eV)",
    "element_ionization_energy3": "20.198 (eV)",
    "element_ionization_energy4": "36.758 (eV)",
    "element_ionization_energy5": "65.55 (eV)",
    "element_ionization_energy6": "77.6 (eV)",
    "element_atomic_radius_e": "185 (pm)",
    "element_atomic_radius": "158 (pm)",
    "element_covalent_radius": "--- (pm)",
    "element_van_der_waals": "---",

    "element_phase": "Solid",
    "element_fusion_heat": "5.46 (kJ/mol)",
    "element_specific_heat_capacity": "0.192 J/(g·K)",
    "element_vaporization_heat": "398 (kJ/mol)",

    "oxidation_state_neg": "",
    "oxidation_state_pos": "2 3 4",

    "speed_of_sound_gas": "---",
    "speed_of_sound_liquid": "---",
    "speed_of_sound_solid": "2100 (m/s) [20°C]",

    "young_modulus": "33.6 (GPa) [γ-form]",
    "poisson_ratio": "0.24 [γ-form]",
    "bulk_modulus": "21.5 (GPa) [γ-form]",
    "shear_modulus": "13.5 (GPa) [γ-form]",

    "mohs_hardness": "2.5",
    "vickers_hardness": "210-470 (MPa)",
    "brinell_hardness": "186-412 (MPa)",

      "iso_1": "Ce-119",
      "iso_mass_1": "118.95276",
      "decay_type_1": "B+",
      "iso_half_1": "200 ms",
      "iso_Z_1": "58",
      "iso_N_1": "61",
      "iso_A_1": "119",

      "iso_2": "Ce-120",
      "iso_mass_2": "119.94664",
      "decay_type_2": "B+",
      "iso_half_2": "250 ms",
      "iso_Z_2": "58",
      "iso_N_2": "62",
      "iso_A_2": "120",

      "iso_3": "Ce-121",
      "iso_mass_3": "120.94342",
      "decay_type_3": "B+",
      "iso_half_3": "1.1 s",
      "iso_Z_3": "58",
      "iso_N_3": "63",
      "iso_A_3": "121",

      "iso_4": "Ce-122",
      "iso_mass_4": "121.93791",
      "decay_type_4": "B+",
      "iso_half_4": "2 s",
      "iso_Z_4": "58",
      "iso_N_4": "64",
      "iso_A_4": "122",

      "iso_5": "Ce-123",
      "iso_mass_5": "122.93540",
      "decay_type_5": "B+",
      "iso_half_5": "3.8 s",
      "iso_Z_5": "58",
      "iso_N_5": "65",
      "iso_A_5": "123",

      "iso_6": "Ce-124",
      "iso_mass_6": "123.93041",
      "decay_type_6": "B+",
      "iso_half_6": "9.1 s",
      "iso_Z_6": "58",
      "iso_N_6": "66",
      "iso_A_6": "124",

      "iso_7": "Ce-125",
      "iso_mass_7": "124.92844",
      "decay_type_7": "B+",
      "iso_half_7": "9.3 s",
      "iso_Z_7": "58",
      "iso_N_7": "67",
      "iso_A_7": "125",

      "iso_8": "Ce-126",
      "iso_mass_8": "125.92397",
      "decay_type_8": "B+",
      "iso_half_8": "51 s",
      "iso_Z_8": "58",
      "iso_N_8": "68",
      "iso_A_8": "126",

      "iso_9": "Ce-127",
      "iso_mass_9": "126.92273",
      "decay_type_9": "B+",
      "iso_half_9": "29 s",
      "iso_Z_9": "58",
      "iso_N_9": "69",
      "iso_A_9": "127",

      "iso_10": "Ce-128",
      "iso_mass_10": "127.91891",
      "decay_type_10": "B+",
      "iso_half_10": "3.93 min",
      "iso_Z_10": "58",
      "iso_N_10": "70",
      "iso_A_10": "128",

      "iso_11": "Ce-129",
      "iso_mass_11": "128.91810",
      "decay_type_11": "B+",
      "iso_half_11": "3.5 min",
      "iso_Z_11": "58",
      "iso_N_11": "71",
      "iso_A_11": "129",

      "iso_12": "Ce-130",
      "iso_mass_12": "129.91474",
      "decay_type_12": "B+",
      "iso_half_12": "22.9 min",
      "iso_Z_12": "58",
      "iso_N_12": "72",
      "iso_A_12": "130",

      "iso_13": "Ce-131",
      "iso_mass_13": "130.91442",
      "decay_type_13": "B+",
      "iso_half_13": "10.2 min",
      "iso_Z_13": "58",
      "iso_N_13": "73",
      "iso_A_13": "131",

      "iso_14": "Ce-132",
      "iso_mass_14": "131.91146",
      "decay_type_14": "B+",
      "iso_half_14": "3.51 h",
      "iso_Z_14": "58",
      "iso_N_14": "74",
      "iso_A_14": "132",

      "iso_15": "Ce-133",
      "iso_mass_15": "132.91099",
      "decay_type_15": "B+",
      "iso_half_15": "97 min",
      "iso_Z_15": "58",
      "iso_N_15": "75",
      "iso_A_15": "133",

      "iso_16": "Ce-134",
      "iso_mass_16": "133.90848",
      "decay_type_16": "B+",
      "iso_half_16": "3.16 d",
      "iso_Z_16": "58",
      "iso_N_16": "76",
      "iso_A_16": "134",

      "iso_17": "Ce-135",
      "iso_mass_17": "134.90807",
      "decay_type_17": "B+",
      "iso_half_17": "17.7 h",
      "iso_Z_17": "58",
      "iso_N_17": "77",
      "iso_A_17": "135",

      "iso_18": "Ce-136",
      "iso_mass_18": "135.90457",
      "decay_type_18": "stable",
      "iso_half_18": "stable",
      "iso_Z_18": "58",
      "iso_N_18": "78",
      "iso_A_18": "136",

      "iso_19": "Ce-137",
      "iso_mass_19": "136.90582",
      "decay_type_19": "B+",
      "iso_half_19": "9.0 h",
      "iso_Z_19": "58",
      "iso_N_19": "79",
      "iso_A_19": "137",

      "iso_20": "Ce-138",
      "iso_mass_20": "137.90599",
      "decay_type_20": "stable",
      "iso_half_20": "stable",
      "iso_Z_20": "58",
      "iso_N_20": "80",
      "iso_A_20": "138",

      "iso_21": "Ce-139",
      "iso_mass_21": "138.90665",
      "decay_type_21": "B+",
      "iso_half_21": "137.64 d",
      "iso_Z_21": "58",
      "iso_N_21": "81",
      "iso_A_21": "139",

      "iso_22": "Ce-140",
      "iso_mass_22": "139.90544",
      "decay_type_22": "stable",
      "iso_half_22": "stable",
      "iso_Z_22": "58",
      "iso_N_22": "82",
      "iso_A_22": "140",

      "iso_23": "Ce-141",
      "iso_mass_23": "140.90828",
      "decay_type_23": "B-",
      "iso_half_23": "32.5 d",
      "iso_Z_23": "58",
      "iso_N_23": "83",
      "iso_A_23": "141",

      "iso_24": "Ce-142",
      "iso_mass_24": "141.90925",
      "decay_type_24": "stable",
      "iso_half_24": "stable",
      "iso_Z_24": "58",
      "iso_N_24": "84",
      "iso_A_24": "142",

      "iso_25": "Ce-143",
      "iso_mass_25": "142.91239",
      "decay_type_25": "B-",
      "iso_half_25": "33.04 h",
      "iso_Z_25": "58",
      "iso_N_25": "85",
      "iso_A_25": "143",

      "iso_26": "Ce-144",
      "iso_mass_26": "143.91365",
      "decay_type_26": "B-",
      "iso_half_26": "284.89 d",
      "iso_Z_26": "58",
      "iso_N_26": "86",
      "iso_A_26": "144",

      "iso_27": "Ce-145",
      "iso_mass_27": "144.91462",
      "decay_type_27": "B-",
      "iso_half_27": "3.0 min",
      "iso_Z_27": "58",
      "iso_N_27": "87",
      "iso_A_27": "145",

      "iso_28": "Ce-146",
      "iso_mass_28": "145.91764",
      "decay_type_28": "B-",
      "iso_half_28": "13.49 min",
      "iso_Z_28": "58",
      "iso_N_28": "88",
      "iso_A_28": "146",

      "iso_29": "Ce-147",
      "iso_mass_29": "146.91908",
      "decay_type_29": "B-",
      "iso_half_29": "56.4 s",
      "iso_Z_29": "58",
      "iso_N_29": "89",
      "iso_A_29": "147",

      "iso_30": "Ce-148",
      "iso_mass_30": "147.92213",
      "decay_type_30": "B-",
      "iso_half_30": "56 s",
      "iso_Z_30": "58",
      "iso_N_30": "90",
      "iso_A_30": "148",

      "iso_31": "Ce-149",
      "iso_mass_31": "148.92372",
      "decay_type_31": "B-",
      "iso_half_31": "4.2 s",
      "iso_Z_31": "58",
      "iso_N_31": "91",
      "iso_A_31": "149",

      "iso_32": "Ce-150",
      "iso_mass_32": "149.92728",
      "decay_type_32": "B-",
      "iso_half_32": "4.0 s",
      "iso_Z_32": "58",
      "iso_N_32": "92",
      "iso_A_32": "150",

      "iso_33": "Ce-151",
      "iso_mass_33": "150.92921",
      "decay_type_33": "B-",
      "iso_half_33": "1.76 s",
      "iso_Z_33": "58",
      "iso_N_33": "93",
      "iso_A_33": "151",

      "iso_34": "Ce-152",
      "iso_mass_34": "151.93256",
      "decay_type_34": "B-",
      "iso_half_34": "1.4 s",
      "iso_Z_34": "58",
      "iso_N_34": "94",
      "iso_A_34": "152",

      "iso_35": "Ce-153",
      "iso_mass_35": "152.93469",
      "decay_type_35": "B-",
      "iso_half_35": "0.8 s",
      "iso_Z_35": "58",
      "iso_N_35": "95",
      "iso_A_35": "153",

      "iso_36": "Ce-154",
      "iso_mass_36": "153.93839",
      "decay_type_36": "B-",
      "iso_half_36": "0.6 s",
      "iso_Z_36": "58",
      "iso_N_36": "96",
      "iso_A_36": "154",

      "iso_37": "Ce-155",
      "iso_mass_37": "154.94012",
      "decay_type_37": "B-",
      "iso_half_37": "0.3 s",
      "iso_Z_37": "58",
      "iso_N_37": "97",
      "iso_A_37": "155",

      "iso_38": "Ce-156",
      "iso_mass_38": "155.94427",
      "decay_type_38": "B-",
      "iso_half_38": "0.2 s",
      "iso_Z_38": "58",
      "iso_N_38": "98",
      "iso_A_38": "156",

      "iso_39": "Ce-157",
      "iso_mass_39": "156.94643",
      "decay_type_39": "B-",
      "iso_half_39": "0.1 s",
      "iso_Z_39": "58",
      "iso_N_39": "99",
      "iso_A_39": "157"
  }
]