[
  {
"element_code": "AAFveN3bseA4tFy9MZZ",
    "wikilink": "https://en.wikipedia.org/wiki/Chlorine",
    "link": "https://upload.wikimedia.org/wikipedia/commons/f/f4/Chlorine_ampoule.jpg",
    "description": "Chlorine is a chemical element with the symbol Cl and atomic number 17. The second-lightest of the halogens, it appears between fluorine and bromine in the periodic table and its properties are mostly intermediate between them. Chlorine is a yellow-green gas at room temperature. It is an extremely reactive element and a strong oxidising agent: among the elements, it has the highest electron affinity and the third-highest electronegativity on the Pauling scale, behind only oxygen and fluorine.",

    "element": "Chlorine",
    "short": "Cl",
    "element_year": "1774",
    "element_discovered_name": "Carl Wilhelm Scheele",
    "element_group": "Reactive Nonmetals",
    "element_appearance": "Pale yellow/ green gas",
    "element_electrons": "17",
    "element_protons": "17",
    "element_neutron_common": "18",

    "radioactive": "No",
    "neutron_cross_sectional": "35.5 (b)",

    "electrical_type": "Insulator",
    "resistivity": "100",
    "resistivity_mult": "1",
    "magnetic_type": "Diamagnetic",
    "superconducting_point": "---",

    "element_atomic_number": "17",
    "element_atomicmass": "35.45 (u)",
    "element_density": "0.003214 (g/cm^3)",
    "element_electronegativty": "3.16",
    "element_block": "p - block",
    "element_shells_electrons": "K2 L8 M7 N0 O0 P0 Q0 R0",
    "element_model": "https://upload.wikimedia.org/wikipedia/commons/thumb/4/41/Electron_shell_017_Chlorine_%28diatomic_nonmetal%29_-_no_label.svg/1280px-Electron_shell_017_Chlorine_%28diatomic_nonmetal%29_-_no_label.svg.png",

    "element_boiling_kelvin": "239.11 (K)",
    "element_boiling_celsius": "−34.04 (°C)",
    "element_boiling_fahrenheit": "−29.27 (°F)",
    "element_melting_kelvin": "171.6 (K)",
    "element_melting_celsius": "−101.5 (°C)",
    "element_melting_fahrenheit": "−150.7 (°F)",

    "element_electron_config": "3s^2 3p^5",
    "element_ion_charge": "Cl^-",
    "element_ionization_energy1": "12.96764 (eV)",
    "element_ionization_energy2": "23.814 (eV)",
    "element_ionization_energy3": "39.61 (eV)",
    "element_ionization_energy4": "53.4652 (eV)",
    "element_ionization_energy5": "67.8 (eV)",
    "element_ionization_energy6": "97.03 (eV)",
    "element_ionization_energy7": "114.1958 (eV)",
    "element_ionization_energy8": "348.28 (eV)",
    "element_ionization_energy9": "400.06 (eV)",
    "element_ionization_energy10": "455.63 (eV)",
    "element_ionization_energy11": "529.28 (eV)",
    "element_ionization_energy12": "591.99 (eV)",
    "element_ionization_energy13": "656.71 (eV)",
    "element_ionization_energy14": "749.76 (eV)",
    "element_ionization_energy15": "809.40 (eV)",
    "element_ionization_energy16": "3658.521 (eV)",
    "element_ionization_energy17": "3946.2960 (eV)",
    "element_atomic_radius_e": "100 (pm)",
    "element_atomic_radius": "79 (pm)",
    "element_covalent_radius": "99 (pm)",
    "element_van_der_waals": "175 (pm)",

    "element_phase": "Gas",
    "element_fusion_heat": "0.479 (Cl2) (kJ/mol)",
    "element_specific_heat_capacity": "0.479 (Cl2) J/(g·K)",
    "element_vaporization_heat": "20.41 (Cl2) (kJ/mol)",

    "oxidation_state_neg": "1",
    "oxidation_state_pos": "1 2 3 4 5 6 7",

    "young_modulus": "---",
    "poisson_ratio": "---",
    "bulk_modulus": "1.1 (GPa) [liquid]",
    "shear_modulus": "---",

      "earth_crust": "170",
      "earth_soils": "100",
      "urban_soils": "285",

    "iso_1": "Cl-28",
    "iso_mass_1": "28.02954",
    "iso_half_1": "---",
    "decay_type_1": "p",
    "iso_Z_1": "17",
    "iso_N_1": "11",
    "iso_A_1": "28",

    "iso_2": "Cl-29",
    "iso_mass_2": "29.01413",
    "iso_half_2": "10 (ps)",
    "decay_type_2": "p",
    "iso_Z_2": "17",
    "iso_N_2": "12",
    "iso_A_2": "29",

    "iso_3": "Cl-30",
    "iso_mass_3": "30.00477",
    "iso_half_3": "30 (ps)",
    "decay_type_3": "p",
    "iso_Z_3": "17",
    "iso_N_3": "13",
    "iso_A_3": "30",

    "iso_4": "Cl-31",
    "iso_mass_4": "30.992448",
    "iso_half_4": "190 (ms)",
    "decay_type_4": "B+",
    "iso_Z_4": "17",
    "iso_N_4": "14",
    "iso_A_4": "31",

    "iso_5": "Cl-32",
    "iso_mass_5": "31.9856846",
    "iso_half_5": "298 (ms)",
    "decay_type_5": "B+",
    "iso_Z_5": "17",
    "iso_N_5": "15",
    "iso_A_5": "32",

    "iso_6": "Cl-33",
    "iso_mass_6": "32.9774520",
    "iso_half_6": "2.5038 (s)",
    "decay_type_6": "B+",
    "iso_Z_6": "17",
    "iso_N_6": "16",
    "iso_A_6": "33",

    "iso_7": "Cl-34",
    "iso_mass_7": "33.97376249",
    "iso_half_7": "1.5266 (s)",
    "decay_type_7": "B+",
    "iso_Z_7": "17",
    "iso_N_7": "17",
    "iso_A_7": "34",

    "iso_8": "Cl-35",
    "iso_mass_8": "34.96885269",
    "iso_half_8": "Stable",
    "decay_type_8": "stable",
    "iso_Z_8": "17",
    "iso_N_8": "18",
    "iso_A_8": "35",

    "iso_9": "Cl-36",
    "iso_mass_9": "35.96830682",
    "iso_half_9": "3.013(15)×10^5",
    "decay_type_9": "B-",
    "iso_Z_9": "17",
    "iso_N_9": "19",
    "iso_A_9": "36",

    "iso_10": "Cl-37",
    "iso_mass_10": "36.96590258",
    "iso_half_10": "Stable",
    "decay_type_10": "stable",
    "iso_Z_10": "17",
    "iso_N_10": "20",
    "iso_A_10": "37",

    "iso_11": "Cl-38",
    "iso_mass_11": "37.96801042",
    "iso_half_11": "37.24 (min)",
    "decay_type_11": "B-",
    "iso_Z_11": "17",
    "iso_N_11": "21",
    "iso_A_11": "38",

    "iso_12": "Cl-39",
    "iso_mass_12": "38.9680082",
    "iso_half_12": "56.2 (min)",
    "decay_type_12": "B-",
    "iso_Z_12": "17",
    "iso_N_12": "22",
    "iso_A_12": "39",

    "iso_13": "Cl-40",
    "iso_mass_13": "39.97042",
    "iso_half_13": "1.35 (min)",
    "decay_type_13": "B-",
    "iso_Z_13": "17",
    "iso_N_13": "23",
    "iso_A_13": "40",

    "iso_14": "Cl-41",
    "iso_mass_14": "40.97068",
    "iso_half_14": "38.4 (s)",
    "decay_type_14": "B-",
    "iso_Z_14": "17",
    "iso_N_14": "24",
    "iso_A_14": "41",

    "iso_15": "Cl-42",
    "iso_mass_15": "41.97334",
    "iso_half_15": "6.8 (s)",
    "decay_type_15": "B-",
    "iso_Z_15": "17",
    "iso_N_15": "25",
    "iso_A_15": "42",

    "iso_16": "Cl-43",
    "iso_mass_16": "42.97406",
    "iso_half_16": "3.13 (s)",
    "decay_type_16": "B-",
    "iso_Z_16": "17",
    "iso_N_16": "26",
    "iso_A_16": "43",

    "iso_17": "Cl-44",
    "iso_mass_17": "43.97812",
    "iso_half_17": "0.56 (s)",
    "decay_type_17": "B-",
    "iso_Z_17": "17",
    "iso_N_17": "27",
    "iso_A_17": "44",

    "iso_18": "Cl-45",
    "iso_mass_18": "44.98039",
    "iso_half_18": "413 (ms)",
    "decay_type_18": "B-",
    "iso_Z_18": "17",
    "iso_N_18": "28",
    "iso_A_18": "45",

    "iso_19": "Cl-46",
    "iso_mass_19": "45.98512",
    "iso_half_19": "232 (ms)",
    "decay_type_19": "B-",
    "iso_Z_19": "17",
    "iso_N_19": "29",
    "iso_A_19": "46",

    "iso_20": "Cl-47",
    "iso_mass_20": "46.98950",
    "iso_half_20": "101 (ms)",
    "decay_type_20": "B-",
    "iso_Z_20": "17",
    "iso_N_20": "30",
    "iso_A_20": "47",

    "iso_21": "Cl-48",
    "iso_mass_21": "47.99541",
    "iso_half_21": "100 (ms)",
    "decay_type_21": "B-",
    "iso_Z_21": "17",
    "iso_N_21": "31",
    "iso_A_21": "48",

    "iso_22": "Cl-49",
    "iso_mass_22": "49.00101",
    "iso_half_22": "50 (ms)",
    "decay_type_22": "B-",
    "iso_Z_22": "17",
    "iso_N_22": "32",
    "iso_A_22": "49",

    "iso_23": "Cl-50",
    "iso_mass_23": "50.00831",
    "iso_half_23": "20 (ms)",
    "decay_type_23": "B-",
    "iso_Z_23": "17",
    "iso_N_23": "33",
    "iso_A_23": "50",

    "iso_24": "Cl-51",
    "iso_mass_24": "51.01534",
    "iso_half_24": "2 (ms)",
    "decay_type_24": "B-",
    "iso_Z_24": "17",
    "iso_N_24": "34",
    "iso_A_24": "51",

    "iso_25": "Cl-52",
    "iso_mass_25": "---",
    "iso_half_25": "---",
    "decay_type_25": "B-",
    "iso_Z_25": "17",
    "iso_N_25": "35",
    "iso_A_25": "52"
  }
]