[
  {
    "element_code": "AAJNC8iyDdbdrJBrBZZ",
    "wikilink": "https://en.wikipedia.org/wiki/Copernicium",
    "link": "empty",
    "description": "Copernicium is a synthetic chemical element with the symbol Cn and atomic number 112. Its known isotopes are extremely radioactive, and have only been created in a laboratory. The most stable known isotope, copernicium-285, has a half-life of approximately 28 seconds. Copernicium was first created in 1996 by the GSI Helmholtz Centre for Heavy Ion Research near Darmstadt, Germany. It is named after the astronomer Nicolaus Copernicus.",
    "element": "Copernicium",
    "short": "Cn",
    "element_year": "---",
    "element_discovered_name": "---",
    "element_group": "Transition Metals",
    "element_appearance": "---",
    "element_electrons": "---",
    "element_protons": "---",
    "element_neutron_common": "---",
    "radioactive": "Yes",
    "neutron_cross_sectional": "--- (b)",
    "electrical_type": "---",
    "resistivity": "---",
    "resistivity_mult": "---",
    "magnetic_type": "---",
    "superconducting_point": "---",
    "element_atomic_number": "112",
    "element_atomicmass": "285 (u)",
    "element_density": "--- (g/cm^3)",
    "element_electronegativty": "---",
    "element_block": "d - block",
    "element_shells_electrons": "K2 L8 M18 N32 O32 P18 Q2 R0",
    "element_model": "https://upload.wikimedia.org/wikipedia/commons/thumb/7/7a/Electron_shell_112_Copernicium_-_no_label.svg/800px-Electron_shell_112_Copernicium_-_no_label.svg.png",
    "element_boiling_kelvin": "--- (K)",
    "element_boiling_celsius": "--- (°C)",
    "element_boiling_fahrenheit": "--- (°F)",
    "element_melting_kelvin": "--- (K)",
    "element_melting_celsius": "--- (°C)",
    "element_melting_fahrenheit": "--- (°F)",
    "element_electron_config": "5f^14, 6d^10. 7s^2",
    "element_ion_charge": "---",
    "element_ionization_energy1": "---",
    "element_atomic_radius_e": "--- (pm)",
    "element_atomic_radius": "--- (pm)",
    "element_covalent_radius": "---",
    "element_van_der_waals": "--- (pm)",
    "element_phase": "Solid",
    "element_fusion_heat": "--- (kJ/mol)",
    "element_specific_heat_capacity": "--- J/(g·K)",
    "element_vaporization_heat": "--- (kJ/mol)",
    "oxidation_state_neg": "",
    "oxidation_state_pos": "2",
    "cas_number": "54086-90-5",
    "iso_1": "--",
    "iso_mass_1": "--",
    "iso_half_1": "--",
    "iso_Z_1": "--",
    "iso_N_1": "--",
    "iso_A_1": "--",
    "crystal_structure": null,
    "lattice_constants": null,
    "debye_temperature": {
      "low_temperature_limit": null,
      "room_temperature": null
    }
  }
]