[
  {
    "wikilink": "https://en.wikipedia.org/wiki/Curium",
    "link": "https://upload.wikimedia.org/wikipedia/en/6/69/Curium.jpg",

    "element": "Curium",
    "short": "Cm",
    "element_year": "1944",
    "element_discovered_name": "Glenn T. Seaborg",
    "element_group": "Actinide",
    "element_appearance": "Silvery Metallic",
    "element_electrons": "96",
    "element_protons": "96",
    "element_neutron_common": "151",

    "electrical_type": "---",
    "resistivity": "---",
    "resistivity_mult": "---",
    "magnetic_type": "---",
    "superconducting_point": "---",

    "element_atomic_number": "96",
    "element_atomicmass": "247 (u)",
    "element_density": "13.51 (g/cm^3)",
    "element_electronegativty": "1.3",
    "element_block": "f - block",
    "element_shells_electrons": "K2 L8 M18 N32 O25 P9 Q2 R0",
    "element_model": "https://upload.wikimedia.org/wikipedia/commons/thumb/f/f5/Electron_shell_096_Curium_-_no_label.svg/800px-Electron_shell_096_Curium_-_no_label.svg.png",

    "element_boiling_kelvin": "3383 (K)",
    "element_boiling_celsius": "3110 (°C)",
    "element_boiling_fahrenheit": "5630 (°F)",
    "element_melting_kelvin": "1613 (K)",
    "element_melting_celsius": "134 (°C)",
    "element_melting_fahrenheit": "2444 (°F)",

    "element_electron_config": "5f^7, 6d^1, 7s^2",
    "element_ion_charge": "Cm^3+",
    "element_ionization_energy": "5.9915 (eV)",
    "element_atomic_radius_e": "176 (pm)",
    "element_atomic_radius": "--- (pm)",
    "element_covalent_radius": "---",
    "element_van_der_waals": "--- (pm)",

    "element_phase": "Solid",
    "element_fusion_heat": "15 (kJ/mol)",
    "element_specific_heat_capacity": "--- J/(g·K)",
    "element_vaporization_heat": "--- (kJ/mol)",

    "oxidation_state_neg": "",
    "oxidation_state_pos": "3 4 5 6",

    "iso_1": "Cm-242",
    "iso_mass_1": "242.0588358",
    "iso_half_1": "162.8 (days)",
    "iso_Z_1": "96",
    "iso_N_1": "146",
    "iso_A_1": "242",

    "iso_2": "Cm-243",
    "iso_mass_2": "243.0613891",
    "iso_half_2": "29.1 (years)",
    "iso_Z_2": "96",
    "iso_N_2": "147",
    "iso_A_2": "243",

    "iso_3": "Cm-244",
    "iso_mass_3": "244.0627526",
    "iso_half_3": "18.10 (years)",
    "iso_Z_3": "96",
    "iso_N_3": "148",
    "iso_A_3": "244",

    "iso_4": "Cm-245",
    "iso_mass_4": "245.0654912",
    "iso_half_4": "8.5×10^3 (years)",
    "iso_Z_4": "96",
    "iso_N_4": "149",
    "iso_A_4": "245",

    "iso_5": "Cm-246",
    "iso_mass_5": "246.0672237",
    "iso_half_5": "4.76×10^3 (years)",
    "iso_Z_5": "96",
    "iso_N_5": "150",
    "iso_A_5": "246",

    "iso_6": "Cm-247",
    "iso_mass_6": "247.070354",
    "iso_half_6": "1.56×10^7 (years)",
    "iso_Z_6": "96",
    "iso_N_6": "151",
    "iso_A_6": "247",

    "iso_7": "Cm-248",
    "iso_mass_7": "248.072349",
    "iso_half_7": "3.48×10^5 (years)",
    "iso_Z_7": "96",
    "iso_N_7": "152",
    "iso_A_7": "248",

    "iso_8": "Cm-249",
    "iso_mass_8": "249.075953",
    "iso_half_8": "64.15 (min)",
    "iso_Z_8": "96",
    "iso_N_8": "153",
    "iso_A_8": "249",

    "iso_9": "Cm-250",
    "iso_mass_9": "250.078357",
    "iso_half_9": "8300 (years)",
    "iso_Z_9": "96",
    "iso_N_9": "154",
    "iso_A_9": "250",

    "iso_10": "Cm-251",
    "iso_mass_10": "251.082285",
    "iso_half_10": "16.8 (min)",
    "iso_Z_10": "96",
    "iso_N_10": "155",
    "iso_A_10": "251"
  }
]