[
  {
"element_code": "AA8T9m52bB3uAnKzNZZ",
    "wikilink": "https://en.wikipedia.org/wiki/Curium",
    "link": "https://upload.wikimedia.org/wikipedia/en/6/69/Curium.jpg",
    "description": "Curium is a transuranic radioactive chemical element with the symbol Cm and atomic number 96. This element of the actinide series was named after Marie and Pierre Curie – both were known for their research on radioactivity. Curium was first intentionally produced and identified in July 1944 by the group of Glenn T. Seaborg at the University of California, Berkeley. The discovery was kept secret and only released to the public in November 1947. Most curium is produced by bombarding uranium or plutonium with neutrons in nuclear reactors – one tonne of spent nuclear fuel contains about 20 grams of curium.",

    "element": "Curium",
    "short": "Cm",
    "element_year": "1944",
    "element_discovered_name": "Glenn T. Seaborg",
    "element_group": "Actinide",
    "element_appearance": "Silvery Metallic",
    "element_electrons": "96",
    "element_protons": "96",
    "element_neutron_common": "151",

    "radioactive": "Yes",
    "neutron_cross_sectional": "79 (b)",

    "electrical_type": "---",
    "resistivity": "1250 nΩm",
    "resistivity_mult": "---",
    "magnetic_type": "---",
    "superconducting_point": "---",

    "element_atomic_number": "96",
    "element_atomicmass": "247 (u)",
    "element_density": "13.51 (g/cm^3)",
    "element_electronegativty": "1.3",
    "element_block": "f - block",
    "element_shells_electrons": "K2 L8 M18 N32 O25 P9 Q2 R0",
    "element_model": "https://upload.wikimedia.org/wikipedia/commons/thumb/f/f5/Electron_shell_096_Curium_-_no_label.svg/800px-Electron_shell_096_Curium_-_no_label.svg.png",

    "element_boiling_kelvin": "3383 (K)",
    "element_boiling_celsius": "3110 (°C)",
    "element_boiling_fahrenheit": "5630 (°F)",
    "element_melting_kelvin": "1613 (K)",
    "element_melting_celsius": "134 (°C)",
    "element_melting_fahrenheit": "2444 (°F)",

    "element_electron_config": "5f^7, 6d^1, 7s^2",
    "element_ion_charge": "Cm^3+",
    "element_ionization_energy1": "5.9915 (eV)",
    "element_atomic_radius_e": "176 (pm)",
    "element_atomic_radius": "--- (pm)",
    "element_covalent_radius": "---",
    "element_van_der_waals": "--- (pm)",

    "element_phase": "Solid",
    "element_fusion_heat": "15 (kJ/mol)",
    "element_specific_heat_capacity": "--- J/(g·K)",
    "element_vaporization_heat": "--- (kJ/mol)",

    "oxidation_state_neg": "",
    "oxidation_state_pos": "3 4 5 6",

    "cas_number": "7440-49-5",
    "eg_number": "231-155-4",

      "iso_1": "Curium-233",
      "iso_mass_1": "233",
      "decay_type_1": "B+",
      "iso_half_1": "23 seconds",
      "iso_Z_1": "96",
      "iso_N_1": "137",
      "iso_A_1": "233",

      "iso_2": "Curium-234",
      "iso_mass_2": "234",
      "decay_type_2": "B+",
      "iso_half_2": "52 seconds",
      "iso_Z_2": "96",
      "iso_N_2": "138",
      "iso_A_2": "234",

      "iso_3": "Curium-235",
      "iso_mass_3": "235",
      "decay_type_3": "B+",
      "iso_half_3": "300 seconds",
      "iso_Z_3": "96",
      "iso_N_3": "139",
      "iso_A_3": "235",

      "iso_4": "Curium-236",
      "iso_mass_4": "236",
      "decay_type_4": "B+",
      "iso_half_4": "6.8 minutes",
      "iso_Z_4": "96",
      "iso_N_4": "140",
      "iso_A_4": "236",

      "iso_5": "Curium-237",
      "iso_mass_5": "237",
      "decay_type_5": "B+",
      "iso_half_5": "660 seconds",
      "iso_Z_5": "96",
      "iso_N_5": "141",
      "iso_A_5": "237",

      "iso_6": "Curium-238",
      "iso_mass_6": "238",
      "decay_type_6": "EC",
      "iso_half_6": "2.2 hours",
      "iso_Z_6": "96",
      "iso_N_6": "142",
      "iso_A_6": "238",

      "iso_7": "Curium-239",
      "iso_mass_7": "239",
      "decay_type_7": "B+",
      "iso_half_7": "2.5 hours",
      "iso_Z_7": "96",
      "iso_N_7": "143",
      "iso_A_7": "239",

      "iso_8": "Curium-240",
      "iso_mass_8": "240",
      "decay_type_8": "α",
      "iso_half_8": "27 days",
      "iso_Z_8": "96",
      "iso_N_8": "144",
      "iso_A_8": "240",

      "iso_9": "Curium-241",
      "iso_mass_9": "241",
      "decay_type_9": "EC",
      "iso_half_9": "32.8 days",
      "iso_Z_9": "96",
      "iso_N_9": "145",
      "iso_A_9": "241",

      "iso_10": "Curium-242",
      "iso_mass_10": "242",
      "decay_type_10": "α",
      "iso_half_10": "162.8 days",
      "iso_Z_10": "96",
      "iso_N_10": "146",
      "iso_A_10": "242",

      "iso_11": "Curium-243",
      "iso_mass_11": "243",
      "decay_type_11": "α",
      "iso_half_11": "29.1 years",
      "iso_Z_11": "96",
      "iso_N_11": "147",
      "iso_A_11": "243",

      "iso_12": "Curium-244",
      "iso_mass_12": "244",
      "decay_type_12": "α",
      "iso_half_12": "18.1 years",
      "iso_Z_12": "96",
      "iso_N_12": "148",
      "iso_A_12": "244",

      "iso_13": "Curium-245",
      "iso_mass_13": "245",
      "decay_type_13": "α",
      "iso_half_13": "8250 years",
      "iso_Z_13": "96",
      "iso_N_13": "149",
      "iso_A_13": "245",

      "iso_14": "Curium-246",
      "iso_mass_14": "246",
      "decay_type_14": "α",
      "iso_half_14": "4760 years",
      "iso_Z_14": "96",
      "iso_N_14": "150",
      "iso_A_14": "246",

      "iso_15": "Curium-247",
      "iso_mass_15": "247",
      "decay_type_15": "α",
      "iso_half_15": "15.6 million years",
      "iso_Z_15": "96",
      "iso_N_15": "151",
      "iso_A_15": "247",

      "iso_16": "Curium-248",
      "iso_mass_16": "248",
      "decay_type_16": "α",
      "iso_half_16": "348000 years",
      "iso_Z_16": "96",
      "iso_N_16": "152",
      "iso_A_16": "248",

      "iso_17": "Curium-249",
      "iso_mass_17": "249",
      "decay_type_17": "B-",
      "iso_half_17": "64.15 minutes",
      "iso_Z_17": "96",
      "iso_N_17": "153",
      "iso_A_17": "249",

      "iso_18": "Curium-250",
      "iso_mass_18": "250",
      "decay_type_18": "SF",
      "iso_half_18": "8300 years",
      "iso_Z_18": "96",
      "iso_N_18": "154",
      "iso_A_18": "250",

      "iso_19": "Curium-251",
      "iso_mass_19": "251",
      "decay_type_19": "SF",
      "iso_half_19": "900 years",
      "iso_Z_19": "96",
      "iso_N_19": "155",
      "iso_A_19": "251"
  }
]