[
  {
"element_code": "AADRk5mxKFYeR4MxiZZ",
    "wikilink": "https://en.wikipedia.org/wiki/Dubnium",
    "link": "empty",
    "description": "Dubnium is a synthetic chemical element with the symbol Db and atomic number 105. Dubnium is highly radioactive: the most stable known isotope, dubnium-268, has a half-life of about 28 hours. This greatly limits the extent of research on dubnium.",

    "element": "Dubnium",
    "short": "Db",
    "element_year": "1970",
    "element_discovered_name": "Lawrence Berkeley National Laboratory",
    "element_group": "Transition Metals",
    "element_appearance": "---",
    "element_electrons": "105",
    "element_protons": "105",
    "element_neutron_common": "163",

    "radioactive": "Yes",
    "neutron_cross_sectional": "--- (b)",

    "electrical_type": "---",
    "resistivity": "---",
    "resistivity_mult": "---",
    "magnetic_type": "---",
    "superconducting_point": "---",

    "element_atomic_number": "105",
    "element_atomicmass": "268 (u)",
    "element_density": "29.3 (g/cm^3)",
    "element_electronegativty": "---",
    "element_block": "d - block",
    "element_shells_electrons": "K2 L8 M18 N32 O32 P11 Q2 R0",
    "element_model": "https://upload.wikimedia.org/wikipedia/commons/thumb/9/90/Electron_shell_105_Dubnium_-_no_label.svg/800px-Electron_shell_105_Dubnium_-_no_label.svg.png",

    "element_boiling_kelvin": "--- (K)",
    "element_boiling_celsius": "--- (°C)",
    "element_boiling_fahrenheit": "--- (°F)",
    "element_melting_kelvin": "--- (K)",
    "element_melting_celsius": "--- (°C)",
    "element_melting_fahrenheit": "--- (°F)",

    "element_electron_config": "5f^14, 6d^3. 7s^2",
    "element_ion_charge": "---",
    "element_ionization_energy1": "---",
    "element_atomic_radius_e": "--- (pm)",
    "element_atomic_radius": "--- (pm)",
    "element_covalent_radius": "---",
    "element_van_der_waals": "--- (pm)",

    "element_phase": "Solid",
    "element_fusion_heat": "--- (kJ/mol)",
    "element_specific_heat_capacity": "--- J/(g·K)",
    "element_vaporization_heat": "--- (kJ/mol)",

    "oxidation_state_neg": "",
    "oxidation_state_pos": "5",

    "cas_number": "53850-35-0",

      "iso_1": "Dubnium-255",
      "iso_mass_1": "255",
      "decay_type_1": "SF",
      "iso_half_1": "1.6 seconds",
      "iso_Z_1": "105",
      "iso_N_1": "150",
      "iso_A_1": "255",

      "iso_2": "Dubnium-256",
      "iso_mass_2": "256",
      "decay_type_2": "SF",
      "iso_half_2": "1.6 seconds",
      "iso_Z_2": "105",
      "iso_N_2": "151",
      "iso_A_2": "256",

      "iso_3": "Dubnium-257",
      "iso_mass_3": "257",
      "decay_type_3": "α",
      "iso_half_3": "1.5 seconds",
      "iso_Z_3": "105",
      "iso_N_3": "152",
      "iso_A_3": "257",

      "iso_4": "Dubnium-258",
      "iso_mass_4": "258",
      "decay_type_4": "α",
      "iso_half_4": "4.5 seconds",
      "iso_Z_4": "105",
      "iso_N_4": "153",
      "iso_A_4": "258",

      "iso_5": "Dubnium-259",
      "iso_mass_5": "259",
      "decay_type_5": "α",
      "iso_half_5": "0.51 seconds",
      "iso_Z_5": "105",
      "iso_N_5": "154",
      "iso_A_5": "259",

      "iso_6": "Dubnium-260",
      "iso_mass_6": "260",
      "decay_type_6": "α",
      "iso_half_6": "1.52 seconds",
      "iso_Z_6": "105",
      "iso_N_6": "155",
      "iso_A_6": "260",

      "iso_7": "Dubnium-261",
      "iso_mass_7": "261",
      "decay_type_7": "SF",
      "iso_half_7": "4.1 seconds",
      "iso_Z_7": "105",
      "iso_N_7": "156",
      "iso_A_7": "261",

      "iso_8": "Dubnium-262",
      "iso_mass_8": "262",
      "decay_type_8": "SF",
      "iso_half_8": "34 seconds",
      "iso_Z_8": "105",
      "iso_N_8": "157",
      "iso_A_8": "262",

      "iso_9": "Dubnium-263",
      "iso_mass_9": "263",
      "decay_type_9": "SF",
      "iso_half_9": "27 seconds",
      "iso_Z_9": "105",
      "iso_N_9": "158",
      "iso_A_9": "263",

      "iso_10": "Dubnium-266",
      "iso_mass_10": "266",
      "decay_type_10": "SF",
      "iso_half_10": "11 minutes",
      "iso_Z_10": "105",
      "iso_N_10": "161",
      "iso_A_10": "266",

      "iso_11": "Dubnium-267",
      "iso_mass_11": "267",
      "decay_type_11": "SF",
      "iso_half_11": "1.4 hours",
      "iso_Z_11": "105",
      "iso_N_11": "162",
      "iso_A_11": "267",

      "iso_12": "Dubnium-268",
      "iso_mass_12": "268",
      "decay_type_12": "SF",
      "iso_half_12": "16 hours",
      "iso_Z_12": "105",
      "iso_N_12": "163",
      "iso_A_12": "268",

      "iso_13": "Dubnium-270",
      "iso_mass_13": "270",
      "decay_type_13": "SF",
      "iso_half_13": "1 hour",
      "iso_Z_13": "105",
      "iso_N_13": "165",
      "iso_A_13": "270"
  }
]