[
  {
    "element_code": "AAVir9ywTWMN8titkZZ",
    "wikilink": "https://en.wikipedia.org/wiki/Dysprosium",
    "link": "https://upload.wikimedia.org/wikipedia/commons/a/a8/Dy_chips.jpg",
    "description": "Dysprosium is a chemical element with the symbol Dy and atomic number 66. It is a rare-earth element with a metallic silver luster. Dysprosium is never found in nature as a free element, though it is found in various minerals, such as xenotime. Naturally occurring dysprosium is composed of seven isotopes, the most abundant of which is Dy-164.",
    "element": "Dysprosium",
    "short": "Dy",
    "element_year": "1886",
    "element_discovered_name": "Lecoq de Boisbaudran",
    "element_group": "Lanthanoids",
    "element_appearance": "Silvery White",
    "element_electrons": "66",
    "element_protons": "66",
    "element_neutron_common": "98",
    "radioactive": "No",
    "neutron_cross_sectional": "920 (b)",
    "electrical_type": "Conductor",
    "resistivity": "926 nΩm",
    "resistivity_mult": "0.0000001",
    "magnetic_type": "Paramagnetic",
    "superconducting_point": "---",
    "element_atomic_number": "66",
    "element_atomicmass": "162.500 (u)",
    "element_density": "8.540 (g/cm^3)",
    "element_electronegativty": "1.22",
    "element_block": "f - block",
    "element_shells_electrons": "K2 L8 M18 N28 O8 P2 Q0 R0",
    "element_model": "https://upload.wikimedia.org/wikipedia/commons/thumb/5/54/Electron_shell_066_Dysprosium_-_no_label.svg/1024px-Electron_shell_066_Dysprosium_-_no_label.svg.png",
    "element_boiling_kelvin": "2840 (K)",
    "element_boiling_celsius": "2562 (°C)",
    "element_boiling_fahrenheit": "4653 (°F)",
    "element_melting_kelvin": "1680 (K)",
    "element_melting_celsius": "1407 (°C)",
    "element_melting_fahrenheit": "2565 (°F)",
    "element_electron_config": "4f^10 6s^2",
    "element_ion_charge": "Dy^3+",
    "element_ionization_energy1": "5.9389 (eV)",
    "element_ionization_energy2": "11.67 (eV)",
    "element_ionization_energy3": "22.8 (eV)",
    "element_ionization_energy4": "41.47 (eV)",
    "element_atomic_radius_e": "195 (pm)",
    "element_atomic_radius": "175 (pm)",
    "element_covalent_radius": "--- (pm)",
    "element_van_der_waals": "---",
    "element_phase": "Solid",
    "element_fusion_heat": "11.06 (kJ/mol)",
    "element_specific_heat_capacity": "0.170 J/(g·K)",
    "element_vaporization_heat": "280 (kJ/mol)",
    "oxidation_state_neg": "0",
    "oxidation_state_pos": "2 3 4",
    "speed_of_sound_gas": "---",
    "speed_of_sound_liquid": "---",
    "speed_of_sound_solid": "2710 (m/s) [20°C]",
    "mohs_hardness": "---",
    "vickers_hardness": "412-550 (MPa)",
    "brinell_hardness": "500-1060 (MPa)",
    "young_modulus": "61.4 (GPa) [α-form]",
    "poisson_ratio": "0.247 [α-form]",
    "bulk_modulus": "40.5 (GPa) [α-form]",
    "shear_modulus": "24.7 (GPa) [α-form]",
    "sea_water": "0.00091",
    "crustal_rocks": "8.5",
    "sun": "0.35",
    "solar_system": "0.40",
    "cas_number": "7429-91-6",
    "eg_number": "231-073-9",
    "iso_1": "Dy-138",
    "iso_mass_1": "137.96249",
    "decay_type_1": "B+",
    "iso_half_1": "200 ms",
    "iso_Z_1": "66",
    "iso_N_1": "72",
    "iso_A_1": "138",
    "iso_2": "Dy-139",
    "iso_mass_2": "138.95954",
    "decay_type_2": "B+",
    "iso_half_2": "600 ms",
    "iso_Z_2": "66",
    "iso_N_2": "73",
    "iso_A_2": "139",
    "iso_3": "Dy-140",
    "iso_mass_3": "139.95401",
    "decay_type_3": "B+",
    "iso_half_3": "700 ms",
    "iso_Z_3": "66",
    "iso_N_3": "74",
    "iso_A_3": "140",
    "iso_4": "Dy-141",
    "iso_mass_4": "140.95135",
    "decay_type_4": "B+",
    "iso_half_4": "0.9 s",
    "iso_Z_4": "66",
    "iso_N_4": "75",
    "iso_A_4": "141",
    "iso_5": "Dy-142",
    "iso_mass_5": "141.94637",
    "decay_type_5": "B+",
    "iso_half_5": "2.3 s",
    "iso_Z_5": "66",
    "iso_N_5": "76",
    "iso_A_5": "142",
    "iso_6": "Dy-143",
    "iso_mass_6": "142.94383",
    "decay_type_6": "B+",
    "iso_half_6": "5.6 s",
    "iso_Z_6": "66",
    "iso_N_6": "77",
    "iso_A_6": "143",
    "iso_7": "Dy-144",
    "iso_mass_7": "143.93925",
    "decay_type_7": "B+",
    "iso_half_7": "9.1 s",
    "iso_Z_7": "66",
    "iso_N_7": "78",
    "iso_A_7": "144",
    "iso_8": "Dy-145",
    "iso_mass_8": "144.93743",
    "decay_type_8": "B+",
    "iso_half_8": "9.5 s",
    "iso_Z_8": "66",
    "iso_N_8": "79",
    "iso_A_8": "145",
    "iso_9": "Dy-146",
    "iso_mass_9": "145.93285",
    "decay_type_9": "B+",
    "iso_half_9": "33.2 s",
    "iso_Z_9": "66",
    "iso_N_9": "80",
    "iso_A_9": "146",
    "iso_10": "Dy-147",
    "iso_mass_10": "146.93109",
    "decay_type_10": "B+",
    "iso_half_10": "40 s",
    "iso_Z_10": "66",
    "iso_N_10": "81",
    "iso_A_10": "147",
    "iso_11": "Dy-148",
    "iso_mass_11": "147.92715",
    "decay_type_11": "B+",
    "iso_half_11": "3.3 min",
    "iso_Z_11": "66",
    "iso_N_11": "82",
    "iso_A_11": "148",
    "iso_12": "Dy-149",
    "iso_mass_12": "148.92731",
    "decay_type_12": "B+",
    "iso_half_12": "4.2 min",
    "iso_Z_12": "66",
    "iso_N_12": "83",
    "iso_A_12": "149",
    "iso_13": "Dy-150",
    "iso_mass_13": "149.92559",
    "decay_type_13": "B+",
    "iso_half_13": "7.17 min",
    "iso_Z_13": "66",
    "iso_N_13": "84",
    "iso_A_13": "150",
    "iso_14": "Dy-151",
    "iso_mass_14": "150.92619",
    "decay_type_14": "B+",
    "iso_half_14": "17.9 min",
    "iso_Z_14": "66",
    "iso_N_14": "85",
    "iso_A_14": "151",
    "iso_15": "Dy-152",
    "iso_mass_15": "151.92472",
    "decay_type_15": "B+",
    "iso_half_15": "2.38 h",
    "iso_Z_15": "66",
    "iso_N_15": "86",
    "iso_A_15": "152",
    "iso_16": "Dy-153",
    "iso_mass_16": "152.92576",
    "decay_type_16": "B+",
    "iso_half_16": "6.4 h",
    "iso_Z_16": "66",
    "iso_N_16": "87",
    "iso_A_16": "153",
    "iso_17": "Dy-154",
    "iso_mass_17": "153.92442",
    "decay_type_17": "B+",
    "iso_half_17": "3.0×10^6 y",
    "iso_Z_17": "66",
    "iso_N_17": "88",
    "iso_A_17": "154",
    "iso_18": "Dy-155",
    "iso_mass_18": "154.92597",
    "decay_type_18": "B+",
    "iso_half_18": "9.9 h",
    "iso_Z_18": "66",
    "iso_N_18": "89",
    "iso_A_18": "155",
    "iso_19": "Dy-156",
    "iso_mass_19": "155.92528",
    "decay_type_19": "stable",
    "iso_half_19": "stable",
    "iso_Z_19": "66",
    "iso_N_19": "90",
    "iso_A_19": "156",
    "iso_20": "Dy-157",
    "iso_mass_20": "156.92697",
    "decay_type_20": "stable",
    "iso_half_20": "stable",
    "iso_Z_20": "66",
    "iso_N_20": "91",
    "iso_A_20": "157",
    "iso_21": "Dy-158",
    "iso_mass_21": "157.92646",
    "decay_type_21": "stable",
    "iso_half_21": "stable",
    "iso_Z_21": "66",
    "iso_N_21": "92",
    "iso_A_21": "158",
    "iso_22": "Dy-159",
    "iso_mass_22": "158.92772",
    "decay_type_22": "B-",
    "iso_half_22": "144.4 d",
    "iso_Z_22": "66",
    "iso_N_22": "93",
    "iso_A_22": "159",
    "iso_23": "Dy-160",
    "iso_mass_23": "159.92706",
    "decay_type_23": "stable",
    "iso_half_23": "stable",
    "iso_Z_23": "66",
    "iso_N_23": "94",
    "iso_A_23": "160",
    "iso_24": "Dy-161",
    "iso_mass_24": "160.92828",
    "decay_type_24": "stable",
    "iso_half_24": "stable",
    "iso_Z_24": "66",
    "iso_N_24": "95",
    "iso_A_24": "161",
    "iso_25": "Dy-162",
    "iso_mass_25": "161.92764",
    "decay_type_25": "stable",
    "iso_half_25": "stable",
    "iso_Z_25": "66",
    "iso_N_25": "96",
    "iso_A_25": "162",
    "iso_26": "Dy-163",
    "iso_mass_26": "162.92873",
    "decay_type_26": "stable",
    "iso_half_26": "stable",
    "iso_Z_26": "66",
    "iso_N_26": "97",
    "iso_A_26": "163",
    "iso_27": "Dy-164",
    "iso_mass_27": "163.92920",
    "decay_type_27": "stable",
    "iso_half_27": "stable",
    "iso_Z_27": "66",
    "iso_N_27": "98",
    "iso_A_27": "164",
    "iso_28": "Dy-165",
    "iso_mass_28": "164.93033",
    "decay_type_28": "B-",
    "iso_half_28": "2.334 h",
    "iso_Z_28": "66",
    "iso_N_28": "99",
    "iso_A_28": "165",
    "iso_29": "Dy-166",
    "iso_mass_29": "165.93029",
    "decay_type_29": "B-",
    "iso_half_29": "81.6 h",
    "iso_Z_29": "66",
    "iso_N_29": "100",
    "iso_A_29": "166",
    "iso_30": "Dy-167",
    "iso_mass_30": "166.93160",
    "decay_type_30": "B-",
    "iso_half_30": "4.5 h",
    "iso_Z_30": "66",
    "iso_N_30": "101",
    "iso_A_30": "167",
    "iso_31": "Dy-168",
    "iso_mass_31": "167.93238",
    "decay_type_31": "B-",
    "iso_half_31": "8.7 min",
    "iso_Z_31": "66",
    "iso_N_31": "102",
    "iso_A_31": "168",
    "iso_32": "Dy-169",
    "iso_mass_32": "168.93459",
    "decay_type_32": "B-",
    "iso_half_32": "3.1 min",
    "iso_Z_32": "66",
    "iso_N_32": "103",
    "iso_A_32": "169",
    "iso_33": "Dy-170",
    "iso_mass_33": "169.93577",
    "decay_type_33": "B-",
    "iso_half_33": "1.6 min",
    "iso_Z_33": "66",
    "iso_N_33": "104",
    "iso_A_33": "170",
    "iso_34": "Dy-171",
    "iso_mass_34": "170.93835",
    "decay_type_34": "B-",
    "iso_half_34": "1.1 min",
    "iso_Z_34": "66",
    "iso_N_34": "105",
    "iso_A_34": "171",
    "iso_35": "Dy-172",
    "iso_mass_35": "171.93945",
    "decay_type_35": "B-",
    "iso_half_35": "40 s",
    "iso_Z_35": "66",
    "iso_N_35": "106",
    "iso_A_35": "172",
    "iso_36": "Dy-173",
    "iso_mass_36": "172.94240",
    "decay_type_36": "B-",
    "iso_half_36": "30 s",
    "iso_Z_36": "66",
    "iso_N_36": "107",
    "iso_A_36": "173",
    "iso_37": "Dy-174",
    "iso_mass_37": "173.94423",
    "decay_type_37": "B-",
    "iso_half_37": "20 s",
    "iso_Z_37": "66",
    "iso_N_37": "108",
    "iso_A_37": "174",
    "iso_38": "Dy-175",
    "iso_mass_38": "174.94777",
    "decay_type_38": "B-",
    "iso_half_38": "10 s",
    "iso_Z_38": "66",
    "iso_N_38": "109",
    "iso_A_38": "175",
    "iso_39": "Dy-176",
    "iso_mass_39": "175.94994",
    "decay_type_39": "B-",
    "iso_half_39": "5 s",
    "iso_Z_39": "66",
    "iso_N_39": "110",
    "iso_A_39": "176",
    "crystal_structure": "Hexagonal close-packed (hcp)",
    "lattice_constants": {
      "a": "3.591 Å",
      "c": "5.650 Å"
    },
    "debye_temperature": {
      "low_temperature_limit": "197 K",
      "room_temperature": "180 K"
    }
  }
]