[
  {
"element_code": "AApVu8spXxx9x4YtpZZ",
    "wikilink": "https://en.wikipedia.org/wiki/Einsteinium",
    "link": "https://upload.wikimedia.org/wikipedia/commons/5/55/Einsteinium.jpg",
    "description": "Einsteinium is a synthetic element with the symbol Es and atomic number 99. As a member of the actinide series, it is the seventh transuranic element.\n\nEinsteinium was discovered as a component of the debris of the first hydrogen bomb explosion in 1952, and named after Albert Einstein. Its most common isotope einsteinium-253 (half-life 20.47 days) is produced artificially from decay of californium-253 in a few dedicated high-power nuclear reactors with a total yield on the order of one milligram per year. The reactor synthesis is followed by a complex process of separating einsteinium-253 from other actinides and products of their decay. Other isotopes are synthesized in various laboratories, but in much smaller amounts, by bombarding heavy actinide elements with light ions. Owing to the small amounts of produced einsteinium and the short half-life of its most easily produced isotope, there are currently almost no practical applications for it outside basic scientific research. In particular, einsteinium was used to synthesize, for the first time, 17 atoms of the new element mendelevium in 1955.",

    "element": "Einsteinium",
    "short": "Es",
    "element_year": "1952",
    "element_discovered_name": "Lawrence Berkeley National Laboratory",
    "element_group": "Actinide",
    "element_appearance": "Silvery",
    "element_electrons": "99",
    "element_protons": "99",
    "element_neutron_common": "153",

    "radioactive": "Yes",
    "neutron_cross_sectional": "160 (b)",

    "electrical_type": "---",
    "resistivity": "---",
    "resistivity_mult": "---",
    "magnetic_type": "---",
    "superconducting_point": "---",

    "element_atomic_number": "99",
    "element_atomicmass": "253 (u)",
    "element_density": "8.84 (g/cm^3)",
    "element_electronegativty": "1.3",
    "element_block": "f - block",
    "element_shells_electrons": "K2 L8 M18 N32 O29 P8 Q2 R0",
    "element_model": "https://upload.wikimedia.org/wikipedia/commons/thumb/5/59/Electron_shell_099_Einsteinium_-_no_label.svg/800px-Electron_shell_099_Einsteinium_-_no_label.svg.png",

    "element_boiling_kelvin": "1269 (K)",
    "element_boiling_celsius": "996 (°C)",
    "element_boiling_fahrenheit": "1825 (°F)",
    "element_melting_kelvin": "1133 (K)",
    "element_melting_celsius": "860 (°C)",
    "element_melting_fahrenheit": "1580 (°F)",

    "element_electron_config": "5f^11, 7s^2",
    "element_ion_charge": "Es^3+",
    "element_ionization_energy1": "6.42 (eV)",
    "element_atomic_radius_e": "--- (pm)",
    "element_atomic_radius": "--- (pm)",
    "element_covalent_radius": "---",
    "element_van_der_waals": "--- (pm)",

    "element_phase": "Solid",
    "element_fusion_heat": "--- (kJ/mol)",
    "element_specific_heat_capacity": "--- J/(g·K)",
    "element_vaporization_heat": "--- (kJ/mol)",

    "oxidation_state_neg": "",
    "oxidation_state_pos": "2 3 4",

    "cas_number": "7429-92-7",
    "eg_number":"231-074-4",

      "iso_1": "Einsteinium-240",
      "iso_mass_1": "240",
      "decay_type_1": "α",
      "iso_half_1": "6 seconds",
      "iso_Z_1": "99",
      "iso_N_1": "141",
      "iso_A_1": "240",

      "iso_2": "Einsteinium-241",
      "iso_mass_2": "241",
      "decay_type_2": "α",
      "iso_half_2": "4.3 seconds",
      "iso_Z_2": "99",
      "iso_N_2": "142",
      "iso_A_2": "241",

      "iso_3": "Einsteinium-242",
      "iso_mass_3": "242",
      "decay_type_3": "B+",
      "iso_half_3": "16.9 seconds",
      "iso_Z_3": "99",
      "iso_N_3": "143",
      "iso_A_3": "242",

      "iso_4": "Einsteinium-243",
      "iso_mass_4": "243",
      "decay_type_4": "α",
      "iso_half_4": "22.1 seconds",
      "iso_Z_4": "99",
      "iso_N_4": "144",
      "iso_A_4": "243",

      "iso_5": "Einsteinium-244",
      "iso_mass_5": "244",
      "decay_type_5": "B+",
      "iso_half_5": "37 seconds",
      "iso_Z_5": "99",
      "iso_N_5": "145",
      "iso_A_5": "244",

      "iso_6": "Einsteinium-245",
      "iso_mass_6": "245",
      "decay_type_6": "B+",
      "iso_half_6": "1.11 minutes",
      "iso_Z_6": "99",
      "iso_N_6": "146",
      "iso_A_6": "245",

      "iso_7": "Einsteinium-246",
      "iso_mass_7": "246",
      "decay_type_7": "B+",
      "iso_half_7": "7.5 minutes",
      "iso_Z_7": "99",
      "iso_N_7": "147",
      "iso_A_7": "246",

      "iso_8": "Einsteinium-247",
      "iso_mass_8": "247",
      "decay_type_8": "B+",
      "iso_half_8": "4.55 minutes",
      "iso_Z_8": "99",
      "iso_N_8": "148",
      "iso_A_8": "247",

      "iso_9": "Einsteinium-248",
      "iso_mass_9": "248",
      "decay_type_9": "B+",
      "iso_half_9": "24 minutes",
      "iso_Z_9": "99",
      "iso_N_9": "149",
      "iso_A_9": "248",

      "iso_10": "Einsteinium-249",
      "iso_mass_10": "249",
      "decay_type_10": "B+",
      "iso_half_10": "102.2 minutes",
      "iso_Z_10": "99",
      "iso_N_10": "150",
      "iso_A_10": "249",

      "iso_11": "Einsteinium-250",
      "iso_mass_11": "250",
      "decay_type_11": "B+",
      "iso_half_11": "8.6 hours",
      "iso_Z_11": "99",
      "iso_N_11": "151",
      "iso_A_11": "250",

      "iso_12": "Einsteinium-251",
      "iso_mass_12": "251",
      "decay_type_12": "EC",
      "iso_half_12": "33 hours",
      "iso_Z_12": "99",
      "iso_N_12": "152",
      "iso_A_12": "251",

      "iso_13": "Einsteinium-252",
      "iso_mass_13": "252",
      "decay_type_13": "α",
      "iso_half_13": "471.7 days",
      "iso_Z_13": "99",
      "iso_N_13": "153",
      "iso_A_13": "252",

      "iso_14": "Einsteinium-253",
      "iso_mass_14": "253",
      "decay_type_14": "α",
      "iso_half_14": "20.47 days",
      "iso_Z_14": "99",
      "iso_N_14": "154",
      "iso_A_14": "253",

      "iso_15": "Einsteinium-254",
      "iso_mass_15": "254",
      "decay_type_15": "α",
      "iso_half_15": "275.7 days",
      "iso_Z_15": "99",
      "iso_N_15": "155",
      "iso_A_15": "254",

      "iso_16": "Einsteinium-255",
      "iso_mass_16": "255",
      "decay_type_16": "B-",
      "iso_half_16": "39.8 days",
      "iso_Z_16": "99",
      "iso_N_16": "156",
      "iso_A_16": "255",

      "iso_17": "Einsteinium-256",
      "iso_mass_17": "256",
      "decay_type_17": "B-",
      "iso_half_17": "7.6 hours",
      "iso_Z_17": "99",
      "iso_N_17": "157",
      "iso_A_17": "256",

      "iso_18": "Einsteinium-257",
      "iso_mass_18": "257",
      "decay_type_18": "B-",
      "iso_half_18": "7.7 days",
      "iso_Z_18": "99",
      "iso_N_18": "158",
      "iso_A_18": "257"
  }
]