[
  {
"element_code": "AAvviBHBvNuSNEpJ8ZZ",
    "wikilink": "https://en.wikipedia.org/wiki/Erbium",
    "link": "https://upload.wikimedia.org/wikipedia/commons/1/12/Erbium-crop.jpg",
    "description": "Erbium is a chemical element with the symbol Er and atomic number 68. A silvery-white solid metal when artificially isolated, natural erbium is always found in chemical combination with other elements. It is a lanthanide, a rare earth element, originally found in the gadolinite mine in Ytterby in Sweden, from which it got its name.",

    "element": "Erbium",
    "short": "Er",
    "element_year": "1843",
    "element_discovered_name": "Carl Gustaf Mosander",
    "element_group": "Lanthanoids",
    "element_appearance": "Silvery White",
    "element_electrons": "68",
    "element_protons": "68",
    "element_neutron_common": "98",

    "radioactive": "No",
    "neutron_cross_sectional": "160 (b)",

    "electrical_type": "Conductor",
    "resistivity": "8.6",
    "resistivity_mult": "0.0000001",
    "magnetic_type": "Paramagnetic",
    "superconducting_point": "---",

    "element_atomic_number": "68",
    "element_atomicmass": "167.259 (u)",
    "element_density": "9.066 (g/cm^3)",
    "element_electronegativty": "1.24",
    "element_block": "f - block",
    "element_shells_electrons": "K2 L8 M18 N30 O8 P2 Q0 R0",
    "element_model": "https://upload.wikimedia.org/wikipedia/commons/thumb/1/10/Electron_shell_068_Erbium_-_no_label.svg/800px-Electron_shell_068_Erbium_-_no_label.svg.png",

    "element_boiling_kelvin": "3141 (K)",
    "element_boiling_celsius": "2868 (°C)",
    "element_boiling_fahrenheit": "5194 (°F)",
    "element_melting_kelvin": "1802 (K)",
    "element_melting_celsius": "1529 (°C)",
    "element_melting_fahrenheit": "2784 (°F)",

    "element_electron_config": "4f^12 6s^2",
    "element_ion_charge": "Er^3+",
    "element_ionization_energy1": "6.1077 (eV)",
    "element_ionization_energy2": "11.93 (eV)",
    "element_ionization_energy3": "22.74 (eV)",
    "element_ionization_energy4": "42.7 (eV)",
    "element_atomic_radius_e": "175 (pm)",
    "element_atomic_radius": "226 (pm)",
    "element_covalent_radius": "--- (pm)",
    "element_van_der_waals": "---",

    "element_phase": "Solid",
    "element_fusion_heat": "19.90 (kJ/mol)",
    "element_specific_heat_capacity": "0.168 J/(g·K)",
    "element_vaporization_heat": "280 (kJ/mol)",

    "speed_of_sound_gas": "---",
    "speed_of_sound_liquid": "---",
    "speed_of_sound_solid": "2830 (m/s) [20°C]",

    "mohs_hardness": "2.0",
    "vickers_hardness": "432-700 (MPa)",
    "brinell_hardness": "600-1070 (MPa)",

    "young_modulus": "69.9 (GPa)",
    "poisson_ratio": "0.237",
    "bulk_modulus": "44.4 (GPa)",
    "shear_modulus": "28.3 (GPa)",

      "iso_1": "Er-142",
      "iso_mass_1": "141.97002",
      "decay_type_1": "p",
      "iso_half_1": "10 μs",
      "iso_Z_1": "68",
      "iso_N_1": "74",
      "iso_A_1": "142",

      "iso_2": "Er-143",
      "iso_mass_2": "142.96655",
      "decay_type_2": "B+",
      "iso_half_2": "200 ms",
      "iso_Z_2": "68",
      "iso_N_2": "75",
      "iso_A_2": "143",

      "iso_3": "Er-144",
      "iso_mass_3": "143.96070",
      "decay_type_3": "B+",
      "iso_half_3": "400 ms",
      "iso_Z_3": "68",
      "iso_N_3": "76",
      "iso_A_3": "144",

      "iso_4": "Er-145",
      "iso_mass_4": "144.95787",
      "decay_type_4": "B+",
      "iso_half_4": "900 ms",
      "iso_Z_4": "68",
      "iso_N_4": "77",
      "iso_A_4": "145",

      "iso_5": "Er-146",
      "iso_mass_5": "145.95242",
      "decay_type_5": "B+",
      "iso_half_5": "1.7 s",
      "iso_Z_5": "68",
      "iso_N_5": "78",
      "iso_A_5": "146",

      "iso_6": "Er-147",
      "iso_mass_6": "146.94996",
      "decay_type_6": "B+",
      "iso_half_6": "3.2 s",
      "iso_Z_6": "68",
      "iso_N_6": "79",
      "iso_A_6": "147",

      "iso_7": "Er-148",
      "iso_mass_7": "147.94474",
      "decay_type_7": "B+",
      "iso_half_7": "4.6 s",
      "iso_Z_7": "68",
      "iso_N_7": "80",
      "iso_A_7": "148",

      "iso_8": "Er-149",
      "iso_mass_8": "148.94231",
      "decay_type_8": "B+",
      "iso_half_8": "4 s",
      "iso_Z_8": "68",
      "iso_N_8": "81",
      "iso_A_8": "149",

      "iso_9": "Er-150",
      "iso_mass_9": "149.93792",
      "decay_type_9": "B+",
      "iso_half_9": "18.5 s",
      "iso_Z_9": "68",
      "iso_N_9": "82",
      "iso_A_9": "150",

      "iso_10": "Er-151",
      "iso_mass_10": "150.93745",
      "decay_type_10": "B+",
      "iso_half_10": "23.5 s",
      "iso_Z_10": "68",
      "iso_N_10": "83",
      "iso_A_10": "151",

      "iso_11": "Er-152",
      "iso_mass_11": "151.93505",
      "decay_type_11": "B+",
      "iso_half_11": "10.5 s",
      "iso_Z_11": "68",
      "iso_N_11": "84",
      "iso_A_11": "152",

      "iso_12": "Er-153",
      "iso_mass_12": "152.93506",
      "decay_type_12": "B+",
      "iso_half_12": "38.3 s",
      "iso_Z_12": "68",
      "iso_N_12": "85",
      "iso_A_12": "153",

      "iso_13": "Er-154",
      "iso_mass_13": "153.93279",
      "decay_type_13": "B+",
      "iso_half_13": "3.0×10^6 y",
      "iso_Z_13": "68",
      "iso_N_13": "86",
      "iso_A_13": "154",

      "iso_14": "Er-155",
      "iso_mass_14": "154.93321",
      "decay_type_14": "B+",
      "iso_half_14": "9.9 h",
      "iso_Z_14": "68",
      "iso_N_14": "87",
      "iso_A_14": "155",

      "iso_15": "Er-156",
      "iso_mass_15": "155.93106",
      "decay_type_15": "stable",
      "iso_half_15": "stable",
      "iso_Z_15": "68",
      "iso_N_15": "88",
      "iso_A_15": "156",

      "iso_16": "Er-157",
      "iso_mass_16": "156.93192",
      "decay_type_16": "stable",
      "iso_half_16": "stable",
      "iso_Z_16": "68",
      "iso_N_16": "89",
      "iso_A_16": "157",

      "iso_17": "Er-158",
      "iso_mass_17": "157.92999",
      "decay_type_17": "stable",
      "iso_half_17": "stable",
      "iso_Z_17": "68",
      "iso_N_17": "90",
      "iso_A_17": "158",

      "iso_18": "Er-159",
      "iso_mass_18": "158.93031",
      "decay_type_18": "B-",
      "iso_half_18": "144.4 d",
      "iso_Z_18": "68",
      "iso_N_18": "91",
      "iso_A_18": "159",

      "iso_19": "Er-160",
      "iso_mass_19": "159.92908",
      "decay_type_19": "stable",
      "iso_half_19": "stable",
      "iso_Z_19": "68",
      "iso_N_19": "92",
      "iso_A_19": "160",

      "iso_20": "Er-161",
      "iso_mass_20": "160.93000",
      "decay_type_20": "stable",
      "iso_half_20": "stable",
      "iso_Z_20": "68",
      "iso_N_20": "93",
      "iso_A_20": "161",

      "iso_21": "Er-162",
      "iso_mass_21": "161.92910",
      "decay_type_21": "stable",
      "iso_half_21": "stable",
      "iso_Z_21": "68",
      "iso_N_21": "94",
      "iso_A_21": "162",

      "iso_22": "Er-163",
      "iso_mass_22": "162.93000",
      "decay_type_22": "stable",
      "iso_half_22": "stable",
      "iso_Z_22": "68",
      "iso_N_22": "95",
      "iso_A_22": "163",

      "iso_23": "Er-164",
      "iso_mass_23": "163.92920",
      "decay_type_23": "stable",
      "iso_half_23": "stable",
      "iso_Z_23": "68",
      "iso_N_23": "96",
      "iso_A_23": "164",

      "iso_24": "Er-165",
      "iso_mass_24": "164.93033",
      "decay_type_24": "B-",
      "iso_half_24": "2.334 h",
      "iso_Z_24": "68",
      "iso_N_24": "97",
      "iso_A_24": "165",

      "iso_25": "Er-166",
      "iso_mass_25": "165.93029",
      "decay_type_25": "B-",
      "iso_half_25": "81.6 h",
      "iso_Z_25": "68",
      "iso_N_25": "98",
      "iso_A_25": "166",

      "iso_26": "Er-167",
      "iso_mass_26": "166.93160",
      "decay_type_26": "B-",
      "iso_half_26": "4.5 h",
      "iso_Z_26": "68",
      "iso_N_26": "99",
      "iso_A_26": "167",

      "iso_27": "Er-168",
      "iso_mass_27": "167.93238",
      "decay_type_27": "B-",
      "iso_half_27": "8.7 min",
      "iso_Z_27": "68",
      "iso_N_27": "100",
      "iso_A_27": "168",

      "iso_28": "Er-169",
      "iso_mass_28": "168.93459",
      "decay_type_28": "B-",
      "iso_half_28": "3.1 min",
      "iso_Z_28": "68",
      "iso_N_28": "101",
      "iso_A_28": "169",

      "iso_29": "Er-170",
      "iso_mass_29": "169.93577",
      "decay_type_29": "B-",
      "iso_half_29": "1.6 min",
      "iso_Z_29": "68",
      "iso_N_29": "102",
      "iso_A_29": "170",

      "iso_30": "Er-171",
      "iso_mass_30": "170.93835",
      "decay_type_30": "B-",
      "iso_half_30": "1.1 min",
      "iso_Z_30": "68",
      "iso_N_30": "103",
      "iso_A_30": "171",

      "iso_31": "Er-172",
      "iso_mass_31": "171.93945",
      "decay_type_31": "B-",
      "iso_half_31": "40 s",
      "iso_Z_31": "68",
      "iso_N_31": "104",
      "iso_A_31": "172",

      "iso_32": "Er-173",
      "iso_mass_32": "172.94240",
      "decay_type_32": "B-",
      "iso_half_32": "30 s",
      "iso_Z_32": "68",
      "iso_N_32": "105",
      "iso_A_32": "173",

      "iso_33": "Er-174",
      "iso_mass_33": "173.94423",
      "decay_type_33": "B-",
      "iso_half_33": "20 s",
      "iso_Z_33": "68",
      "iso_N_33": "106",
      "iso_A_33": "174",

      "iso_34": "Er-175",
      "iso_mass_34": "174.94777",
      "decay_type_34": "B-",
      "iso_half_34": "10 s",
      "iso_Z_34": "68",
      "iso_N_34": "107",
      "iso_A_34": "175",

      "iso_35": "Er-176",
      "iso_mass_35": "175.94994",
      "decay_type_35": "B-",
      "iso_half_35": "5 s",
      "iso_Z_35": "68",
      "iso_N_35": "108",
      "iso_A_35": "176"
  }
]