[
  {
"element_code": "AAwFvQNkgJiux3GRHZZ",
    "wikilink": "https://en.wikipedia.org/wiki/Europium",
    "link": "https://upload.wikimedia.org/wikipedia/commons/thumb/6/6a/Europium.jpg/800px-Europium.jpg",
    "description": "Europium is a chemical element with the symbol Eu and atomic number 63. Europium is the most reactive lanthanide by far, having to be stored under an inert fluid to protect it from atmospheric oxygen or moisture. Europium is also the softest lanthanide, as it can be dented with a fingernail and easily cut with a knife. When oxidation is removed a shiny-white metal is visible. Europium was isolated in 1901 and is named after the continent of Europe. Being a typical member of the lanthanide series, europium usually assumes the oxidation state +3, but the oxidation state +2 is also common. All europium compounds with oxidation state +2 are slightly reducing. Europium has no significant biological role and is relatively non-toxic compared to other heavy metals. Most applications of europium exploit the phosphorescence of europium compounds. Europium is one of the rarest of the rare earth elements on Earth.",

    "element": "Europium",
    "short": "Eu",
    "element_year": "1896",
    "element_discovered_name": "Eugène-Anatole Demarçay",
    "element_group": "Lanthanoids",
    "element_appearance": "Silvery White",
    "element_electrons": "63",
    "element_protons": "63",
    "element_neutron_common": "90",

    "radioactive": "No",
    "neutron_cross_sectional": "4600 (b)",

    "electrical_type": "Conductor",
    "resistivity": "9",
    "resistivity_mult": "0.0000001",
    "magnetic_type": "Paramagnetic",
    "superconducting_point": "1.8",

    "element_atomic_number": "63",
    "element_atomicmass": "151.964 (u)",
    "element_density": "5.24 (g/cm^3)",
    "element_electronegativty": "1.2",
    "element_block": "f - block",
    "element_shells_electrons": "K2 L8 18 N25 O8 P2 Q0 R0",
    "element_model": "https://upload.wikimedia.org/wikipedia/commons/thumb/2/25/Electron_shell_063_Europium_-_no_label.svg/800px-Electron_shell_063_Europium_-_no_label.svg.png",

    "element_boiling_kelvin": "1802 (K)",
    "element_boiling_celsius": "1529 (°C)",
    "element_boiling_fahrenheit": "2784 (°F)",
    "element_melting_kelvin": "1099 (K)",
    "element_melting_celsius": "826 (°C)",
    "element_melting_fahrenheit": "1519 (°F)",

    "element_electron_config": "4f^7 6s^2",
    "element_ion_charge": "Eu^3+, Eu^2+",
    "element_ionization_energy1": "5.6704 (eV)",
    "element_ionization_energy2": "11.241 (eV)",
    "element_ionization_energy3": "24.92 (eV)",
    "element_ionization_energy4": "42.7 (eV)",
    "element_atomic_radius_e": "185 (pm)",
    "element_atomic_radius": "231 (pm)",
    "element_covalent_radius": "--- (pm)",
    "element_van_der_waals": "---",

    "element_phase": "Solid",
    "element_fusion_heat": "9.21 (kJ/mol)",
    "element_specific_heat_capacity": "0.182 J/(g·K)",
    "element_vaporization_heat": "176 (kJ/mol)",

    "oxidation_state_neg": "",
    "oxidation_state_pos": "2 3",

    "mohs_hardness": "---",
    "vickers_hardness": "167-200 (MPa)",
    "brinell_hardness": "---",

    "young_modulus": "18.2 (GPa)",
    "poisson_ratio": "0.152",
    "bulk_modulus": "8.3 (GPa)",
    "shear_modulus": "7.9 (GPa)",

    "sea_water": "0.00013",
    "crustal_rocks": "2.2",
    "sun": "0.09",
    "solar_system": "0.097",

      "iso_1": "Eu-130",
      "iso_mass_1": "129.96357",
      "decay_type_1": "B+",
      "iso_half_1": "1.1 ms",
      "iso_Z_1": "63",
      "iso_N_1": "67",
      "iso_A_1": "130",

      "iso_2": "Eu-131",
      "iso_mass_2": "130.95775",
      "decay_type_2": "B+",
      "iso_half_2": "17.8 ms",
      "iso_Z_2": "63",
      "iso_N_2": "68",
      "iso_A_2": "131",

      "iso_3": "Eu-132",
      "iso_mass_3": "131.95437",
      "decay_type_3": "B+",
      "iso_half_3": "100 ms",
      "iso_Z_3": "63",
      "iso_N_3": "69",
      "iso_A_3": "132",

      "iso_4": "Eu-133",
      "iso_mass_4": "132.94924",
      "decay_type_4": "B+",
      "iso_half_4": "200 ms",
      "iso_Z_4": "63",
      "iso_N_4": "70",
      "iso_A_4": "133",

      "iso_5": "Eu-134",
      "iso_mass_5": "133.94651",
      "decay_type_5": "B+",
      "iso_half_5": "0.5 s",
      "iso_Z_5": "63",
      "iso_N_5": "71",
      "iso_A_5": "134",

      "iso_6": "Eu-135",
      "iso_mass_6": "134.94182",
      "decay_type_6": "B+",
      "iso_half_6": "1.5 s",
      "iso_Z_6": "63",
      "iso_N_6": "72",
      "iso_A_6": "135",

      "iso_7": "Eu-136",
      "iso_mass_7": "135.93960",
      "decay_type_7": "B+",
      "iso_half_7": "3.3 s",
      "iso_Z_7": "63",
      "iso_N_7": "73",
      "iso_A_7": "136",

      "iso_8": "Eu-137",
      "iso_mass_8": "136.93557",
      "decay_type_8": "B+",
      "iso_half_8": "8.4 s",
      "iso_Z_8": "63",
      "iso_N_8": "74",
      "iso_A_8": "137",

      "iso_9": "Eu-138",
      "iso_mass_9": "137.93371",
      "decay_type_9": "B+",
      "iso_half_9": "12.1 s",
      "iso_Z_9": "63",
      "iso_N_9": "75",
      "iso_A_9": "138",

      "iso_10": "Eu-139",
      "iso_mass_10": "138.92979",
      "decay_type_10": "B+",
      "iso_half_10": "17.9 s",
      "iso_Z_10": "63",
      "iso_N_10": "76",
      "iso_A_10": "139",

      "iso_11": "Eu-140",
      "iso_mass_11": "139.92809",
      "decay_type_11": "B+",
      "iso_half_11": "1.51 s",
      "iso_Z_11": "63",
      "iso_N_11": "77",
      "iso_A_11": "140",

      "iso_12": "Eu-141",
      "iso_mass_12": "140.92493",
      "decay_type_12": "B+",
      "iso_half_12": "40.7 s",
      "iso_Z_12": "63",
      "iso_N_12": "78",
      "iso_A_12": "141",

      "iso_13": "Eu-142",
      "iso_mass_13": "141.92343",
      "decay_type_13": "B+",
      "iso_half_13": "2.36 s",
      "iso_Z_13": "63",
      "iso_N_13": "79",
      "iso_A_13": "142",

      "iso_14": "Eu-143",
      "iso_mass_14": "142.92030",
      "decay_type_14": "B+",
      "iso_half_14": "2.59 min",
      "iso_Z_14": "63",
      "iso_N_14": "80",
      "iso_A_14": "143",

      "iso_15": "Eu-144",
      "iso_mass_15": "143.91882",
      "decay_type_15": "B+",
      "iso_half_15": "10.2 s",
      "iso_Z_15": "63",
      "iso_N_15": "81",
      "iso_A_15": "144",

      "iso_16": "Eu-145",
      "iso_mass_16": "144.91627",
      "decay_type_16": "B+",
      "iso_half_16": "5.93 d",
      "iso_Z_16": "63",
      "iso_N_16": "82",
      "iso_A_16": "145",

      "iso_17": "Eu-146",
      "iso_mass_17": "145.91721",
      "decay_type_17": "B+",
      "iso_half_17": "4.6 d",
      "iso_Z_17": "63",
      "iso_N_17": "83",
      "iso_A_17": "146",

      "iso_18": "Eu-147",
      "iso_mass_18": "146.91675",
      "decay_type_18": "B-",
      "iso_half_18": "24.1 d",
      "iso_Z_18": "63",
      "iso_N_18": "84",
      "iso_A_18": "147",

      "iso_19": "Eu-148",
      "iso_mass_19": "147.91808",
      "decay_type_19": "B-",
      "iso_half_19": "54.5 d",
      "iso_Z_19": "63",
      "iso_N_19": "85",
      "iso_A_19": "148",

      "iso_20": "Eu-149",
      "iso_mass_20": "148.91793",
      "decay_type_20": "B-",
      "iso_half_20": "93.1 d",
      "iso_Z_20": "63",
      "iso_N_20": "86",
      "iso_A_20": "149",

      "iso_21": "Eu-150",
      "iso_mass_21": "149.91970",
      "decay_type_21": "B-",
      "iso_half_21": "36.9 y",
      "iso_Z_21": "63",
      "iso_N_21": "87",
      "iso_A_21": "150",

      "iso_22": "Eu-151",
      "iso_mass_22": "150.91986",
      "decay_type_22": "alpha",
      "iso_half_22": "4.62×10^18 y",
      "iso_Z_22": "63",
      "iso_N_22": "88",
      "iso_A_22": "151",

      "iso_23": "Eu-152",
      "iso_mass_23": "151.92174",
      "decay_type_23": "B-",
      "iso_half_23": "13.516 y",
      "iso_Z_23": "63",
      "iso_N_23": "89",
      "iso_A_23": "152",

      "iso_24": "Eu-153",
      "iso_mass_24": "152.92124",
      "decay_type_24": "stable",
      "iso_half_24": "stable",
      "iso_Z_24": "63",
      "iso_N_24": "90",
      "iso_A_24": "153",

      "iso_25": "Eu-154",
      "iso_mass_25": "153.92298",
      "decay_type_25": "B-",
      "iso_half_25": "8.593 y",
      "iso_Z_25": "63",
      "iso_N_25": "91",
      "iso_A_25": "154",

      "iso_26": "Eu-155",
      "iso_mass_26": "154.92289",
      "decay_type_26": "B-",
      "iso_half_26": "4.761 y",
      "iso_Z_26": "63",
      "iso_N_26": "92",
      "iso_A_26": "155",

      "iso_27": "Eu-156",
      "iso_mass_27": "155.92475",
      "decay_type_27": "B-",
      "iso_half_27": "15.19 d",
      "iso_Z_27": "63",
      "iso_N_27": "93",
      "iso_A_27": "156",

      "iso_28": "Eu-157",
      "iso_mass_28": "156.92542",
      "decay_type_28": "B-",
      "iso_half_28": "15.18 h",
      "iso_Z_28": "63",
      "iso_N_28": "94",
      "iso_A_28": "157",

      "iso_29": "Eu-158",
      "iso_mass_29": "157.92785",
      "decay_type_29": "B-",
      "iso_half_29": "45.6 min",
      "iso_Z_29": "63",
      "iso_N_29": "95",
      "iso_A_29": "158",

      "iso_30": "Eu-159",
      "iso_mass_30": "158.92910",
      "decay_type_30": "B-",
      "iso_half_30": "18.1 min",
      "iso_Z_30": "63",
      "iso_N_30": "96",
      "iso_A_30": "159",

      "iso_31": "Eu-160",
      "iso_mass_31": "159.93185",
      "decay_type_31": "B-",
      "iso_half_31": "9.3 min",
      "iso_Z_31": "63",
      "iso_N_31": "97",
      "iso_A_31": "160",

      "iso_32": "Eu-161",
      "iso_mass_32": "160.93355",
      "decay_type_32": "B-",
      "iso_half_32": "3.21 min",
      "iso_Z_32": "63",
      "iso_N_32": "98",
      "iso_A_32": "161",

      "iso_33": "Eu-162",
      "iso_mass_33": "161.93698",
      "decay_type_33": "B-",
      "iso_half_33": "1.6 min",
      "iso_Z_33": "63",
      "iso_N_33": "99",
      "iso_A_33": "162",

      "iso_34": "Eu-163",
      "iso_mass_34": "162.93920",
      "decay_type_34": "B-",
      "iso_half_34": "97 s",
      "iso_Z_34": "63",
      "iso_N_34": "100",
      "iso_A_34": "163",

      "iso_35": "Eu-164",
      "iso_mass_35": "163.94299",
      "decay_type_35": "B-",
      "iso_half_35": "55 s",
      "iso_Z_35": "63",
      "iso_N_35": "101",
      "iso_A_35": "164",

      "iso_36": "Eu-165",
      "iso_mass_36": "164.94572",
      "decay_type_36": "B-",
      "iso_half_36": "30 s",
      "iso_Z_36": "63",
      "iso_N_36": "102",
      "iso_A_36": "165",

      "iso_37": "Eu-166",
      "iso_mass_37": "165.94997",
      "decay_type_37": "B-",
      "iso_half_37": "20 s",
      "iso_Z_37": "63",
      "iso_N_37": "103",
      "iso_A_37": "166",

      "iso_38": "Eu-167",
      "iso_mass_38": "166.95321",
      "decay_type_38": "B-",
      "iso_half_38": "10 s",
      "iso_Z_38": "63",
      "iso_N_38": "104",
      "iso_A_38": "167"
  }
]