[
  {
"element_code": "AASXuxJkWCcjJcAWkZZ",
    "wikilink": "https://en.wikipedia.org/wiki/Fermium",
    "link": "https://upload.wikimedia.org/wikipedia/commons/9/9e/Fermium-Ytterbium_Alloy.jpg",
    "description": "Fermium is a synthetic element with the symbol Fm and atomic number 100. It is an actinide and the heaviest element that can be formed by neutron bombardment of lighter elements, and hence the last element that can be prepared in macroscopic quantities, although pure fermium metal has not yet been prepared. A total of 19 isotopes are known, with Fm-257 being the longest-lived with a half-life of 100.5 days.",

    "element": "Fermium",
    "short": "Fm",
    "element_year": "1952",
    "element_discovered_name": "Lawrence Berkeley National Laboratory",
    "element_group": "Actinide",
    "element_appearance": "---",
    "element_electrons": "100",
    "element_protons": "100",
    "element_neutron_common": "158",

    "radioactive": "Yes",
    "neutron_cross_sectional": "5800 (b)",

    "electrical_type": "---",
    "resistivity": "---",
    "resistivity_mult": "---",
    "magnetic_type": "---",
    "superconducting_point": "---",

    "element_atomic_number": "100",
    "element_atomicmass": "257 (u)",
    "element_density": "9.7 (g/cm^3)",
    "element_electronegativty": "1.3",
    "element_block": "f - block",
    "element_shells_electrons": "K2 L8 M18 N32 O30 P8 Q2 R0",
    "element_model": "https://upload.wikimedia.org/wikipedia/commons/thumb/e/e8/Electron_shell_100_Fermium_-_no_label.svg/800px-Electron_shell_100_Fermium_-_no_label.svg.png",

    "element_boiling_kelvin": "--- (K)",
    "element_boiling_celsius": "--- (°C)",
    "element_boiling_fahrenheit": "--- (°F)",
    "element_melting_kelvin": "1800 (K)",
    "element_melting_celsius": "1527 (°C)",
    "element_melting_fahrenheit": "2781 (°F)",

    "element_electron_config": "5f^12, 7s^2",
    "element_ion_charge": "Fm^3+",
    "element_ionization_energy1": "6.50 (eV)",
    "element_atomic_radius_e": "--- (pm)",
    "element_atomic_radius": "--- (pm)",
    "element_covalent_radius": "---",
    "element_van_der_waals": "--- (pm)",

    "element_phase": "Solid",
    "element_fusion_heat": "--- (kJ/mol)",
    "element_specific_heat_capacity": "--- J/(g·K)",
    "element_vaporization_heat": "--- (kJ/mol)",

    "oxidation_state_neg": "",
    "oxidation_state_pos": "2 3",

    "iso_1": "Fm-256",
    "iso_mass_1": "256.091774",
    "iso_half_1": "157.6 (min)",
    "iso_Z_1": "100",
    "iso_N_1": "156",
    "iso_A_1": "256",

    "iso_2": "Fm-257",
    "iso_mass_2": "257.095106",
    "iso_half_2": "100.5 (days)",
    "iso_Z_2": "100",
    "iso_N_2": "157",
    "iso_A_2": "257",

    "iso_3": "Fm-258",
    "iso_mass_3": "258.09708",
    "iso_half_3": "370 (µs)",
    "iso_Z_3": "100",
    "iso_N_3": "158",
    "iso_A_3": "258"
  }
]