[
  {
"element_code": "AASXuxJkWCcjJcAWkZZ",
    "wikilink": "https://en.wikipedia.org/wiki/Fermium",
    "link": "https://upload.wikimedia.org/wikipedia/commons/9/9e/Fermium-Ytterbium_Alloy.jpg",
    "description": "Fermium is a synthetic element with the symbol Fm and atomic number 100. It is an actinide and the heaviest element that can be formed by neutron bombardment of lighter elements, and hence the last element that can be prepared in macroscopic quantities, although pure fermium metal has not yet been prepared. A total of 19 isotopes are known, with Fm-257 being the longest-lived with a half-life of 100.5 days.",

    "element": "Fermium",
    "short": "Fm",
    "element_year": "1952",
    "element_discovered_name": "Lawrence Berkeley National Laboratory",
    "element_group": "Actinide",
    "element_appearance": "---",
    "element_electrons": "100",
    "element_protons": "100",
    "element_neutron_common": "158",

    "radioactive": "Yes",
    "neutron_cross_sectional": "5800 (b)",

    "electrical_type": "---",
    "resistivity": "---",
    "resistivity_mult": "---",
    "magnetic_type": "---",
    "superconducting_point": "---",

    "element_atomic_number": "100",
    "element_atomicmass": "257 (u)",
    "element_density": "9.7 (g/cm^3)",
    "element_electronegativty": "1.3",
    "element_block": "f - block",
    "element_shells_electrons": "K2 L8 M18 N32 O30 P8 Q2 R0",
    "element_model": "https://upload.wikimedia.org/wikipedia/commons/thumb/e/e8/Electron_shell_100_Fermium_-_no_label.svg/800px-Electron_shell_100_Fermium_-_no_label.svg.png",

    "element_boiling_kelvin": "--- (K)",
    "element_boiling_celsius": "--- (°C)",
    "element_boiling_fahrenheit": "--- (°F)",
    "element_melting_kelvin": "1800 (K)",
    "element_melting_celsius": "1527 (°C)",
    "element_melting_fahrenheit": "2781 (°F)",

    "element_electron_config": "5f^12, 7s^2",
    "element_ion_charge": "Fm^3+",
    "element_ionization_energy1": "6.50 (eV)",
    "element_atomic_radius_e": "--- (pm)",
    "element_atomic_radius": "--- (pm)",
    "element_covalent_radius": "---",
    "element_van_der_waals": "--- (pm)",

    "element_phase": "Solid",
    "element_fusion_heat": "--- (kJ/mol)",
    "element_specific_heat_capacity": "--- J/(g·K)",
    "element_vaporization_heat": "--- (kJ/mol)",

    "oxidation_state_neg": "",
    "oxidation_state_pos": "2 3",

    "cas_number": "7440-72-4",
    "eg_number": "231-180-1",

      "iso_1": "Fermium-241",
      "iso_mass_1": "241",
      "decay_type_1": "SF",
      "iso_half_1": "730 microseconds",
      "iso_Z_1": "100",
      "iso_N_1": "141",
      "iso_A_1": "241",

      "iso_2": "Fermium-242",
      "iso_mass_2": "242",
      "decay_type_2": "SF",
      "iso_half_2": "<4 microseconds",
      "iso_Z_2": "100",
      "iso_N_2": "142",
      "iso_A_2": "242",

      "iso_3": "Fermium-243",
      "iso_mass_3": "243",
      "decay_type_3": "α",
      "iso_half_3": "231 milliseconds",
      "iso_Z_3": "100",
      "iso_N_3": "143",
      "iso_A_3": "243",

      "iso_4": "Fermium-244",
      "iso_mass_4": "244",
      "decay_type_4": "SF",
      "iso_half_4": "3.12 milliseconds",
      "iso_Z_4": "100",
      "iso_N_4": "144",
      "iso_A_4": "244",

      "iso_5": "Fermium-245",
      "iso_mass_5": "245",
      "decay_type_5": "α",
      "iso_half_5": "5.5 seconds",
      "iso_Z_5": "100",
      "iso_N_5": "145",
      "iso_A_5": "245",

      "iso_6": "Fermium-246",
      "iso_mass_6": "246",
      "decay_type_6": "α",
      "iso_half_6": "1.54 seconds",
      "iso_Z_6": "100",
      "iso_N_6": "146",
      "iso_A_6": "246",

      "iso_7": "Fermium-247",
      "iso_mass_7": "247",
      "decay_type_7": "α",
      "iso_half_7": "31 seconds",
      "iso_Z_7": "100",
      "iso_N_7": "147",
      "iso_A_7": "247",

      "iso_8": "Fermium-248",
      "iso_mass_8": "248",
      "decay_type_8": "α",
      "iso_half_8": "35.1 seconds",
      "iso_Z_8": "100",
      "iso_N_8": "148",
      "iso_A_8": "248",

      "iso_9": "Fermium-249",
      "iso_mass_9": "249",
      "decay_type_9": "B+",
      "iso_half_9": "1.6 minutes",
      "iso_Z_9": "100",
      "iso_N_9": "149",
      "iso_A_9": "249",

      "iso_10": "Fermium-250",
      "iso_mass_10": "250",
      "decay_type_10": "α",
      "iso_half_10": "30.4 minutes",
      "iso_Z_10": "100",
      "iso_N_10": "150",
      "iso_A_10": "250",

      "iso_11": "Fermium-251",
      "iso_mass_11": "251",
      "decay_type_11": "B+",
      "iso_half_11": "5.3 hours",
      "iso_Z_11": "100",
      "iso_N_11": "151",
      "iso_A_11": "251",

      "iso_12": "Fermium-252",
      "iso_mass_12": "252",
      "decay_type_12": "α",
      "iso_half_12": "25.39 hours",
      "iso_Z_12": "100",
      "iso_N_12": "152",
      "iso_A_12": "252",

      "iso_13": "Fermium-253",
      "iso_mass_13": "253",
      "decay_type_13": "EC",
      "iso_half_13": "3 days",
      "iso_Z_13": "100",
      "iso_N_13": "153",
      "iso_A_13": "253",

      "iso_14": "Fermium-254",
      "iso_mass_14": "254",
      "decay_type_14": "α",
      "iso_half_14": "3.24 hours",
      "iso_Z_14": "100",
      "iso_N_14": "154",
      "iso_A_14": "254",

      "iso_15": "Fermium-255",
      "iso_mass_15": "255",
      "decay_type_15": "α",
      "iso_half_15": "20.07 hours",
      "iso_Z_15": "100",
      "iso_N_15": "155",
      "iso_A_15": "255",

      "iso_16": "Fermium-256",
      "iso_mass_16": "256",
      "decay_type_16": "SF",
      "iso_half_16": "157.6 minutes",
      "iso_Z_16": "100",
      "iso_N_16": "156",
      "iso_A_16": "256",

      "iso_17": "Fermium-257",
      "iso_mass_17": "257",
      "decay_type_17": "α",
      "iso_half_17": "100.5 days",
      "iso_Z_17": "100",
      "iso_N_17": "157",
      "iso_A_17": "257",

      "iso_18": "Fermium-258",
      "iso_mass_18": "258",
      "decay_type_18": "SF",
      "iso_half_18": "370 microseconds",
      "iso_Z_18": "100",
      "iso_N_18": "158",
      "iso_A_18": "258",

      "iso_19": "Fermium-259",
      "iso_mass_19": "259",
      "decay_type_19": "SF",
      "iso_half_19": "1.5 seconds",
      "iso_Z_19": "100",
      "iso_N_19": "159",
      "iso_A_19": "259",

      "iso_20": "Fermium-260",
      "iso_mass_20": "260",
      "decay_type_20": "SF",
      "iso_half_20": "4 milliseconds",
      "iso_Z_20": "100",
      "iso_N_20": "160",
      "iso_A_20": "260"
  }
]