[
  {
    "element_code": "AAKYkS7Fo8EYzgH8pZZ",
    "wikilink": "https://en.wikipedia.org/wiki/Francium",
    "link": "http://www.chemistrylearner.com/wp-content/uploads/2018/02/Francium.jpg",
    "description": "Francium is a chemical element with the symbol Fr and atomic number 87. Prior to its discovery, it was referred to as eka-caesium. It is extremely radioactive; its most stable isotope, francium-223 (originally called actinium K after the natural decay chain it appears in), has a half-life of only 22 minutes. It is the second-most electropositive element, behind only caesium, and is the second rarest naturally occurring element (after astatine). The isotopes of francium decay quickly into astatine, radium, and radon. The electronic structure of a francium atom is [Rn] 7s^1, and so the element is classed as an alkali metal.",
    "element": "Francium",
    "short": "Fr",
    "element_year": "Marguerite Perey",
    "element_discovered_name": "1939",
    "element_group": "Alkali metals",
    "element_appearance": "---",
    "element_electrons": "87",
    "element_protons": "87",
    "element_neutron_common": "136",
    "radioactive": "Yes",
    "neutron_cross_sectional": "--- (b)",
    "electrical_type": "---",
    "resistivity": "---",
    "resistivity_mult": "---",
    "magnetic_type": "---",
    "superconducting_point": "---",
    "element_atomic_number": "87",
    "element_atomicmass": "223 (u)",
    "element_density": "1.87 (g/cm^3)",
    "element_electronegativty": "0.79",
    "element_block": "s - block",
    "element_shells_electrons": "K2 L8 M18 N32 O18 P8 Q1 R0",
    "element_model": "https://upload.wikimedia.org/wikipedia/commons/thumb/f/fa/Electron_shell_087_Francium_-_no_label.svg/800px-Electron_shell_087_Francium_-_no_label.svg.png",
    "element_boiling_kelvin": "890 (K)",
    "element_boiling_celsius": "620 (°C)",
    "element_boiling_fahrenheit": "1150 (°F)",
    "element_melting_kelvin": "281.0 (K)",
    "element_melting_celsius": "8.0 (°C)",
    "element_melting_fahrenheit": "46.4 (°F)",
    "element_electron_config": "7s^1",
    "element_ion_charge": "Fr+",
    "element_ionization_energy1": "4.0727 (eV)",
    "element_atomic_radius_e": "--- (pm)",
    "element_atomic_radius": "--- (pm)",
    "element_covalent_radius": "---",
    "element_van_der_waals": "348 (pm)",
    "element_phase": "Solid",
    "element_fusion_heat": "2 (kJ/mol)",
    "element_specific_heat_capacity": "--- J/(g·K)",
    "element_vaporization_heat": "65 (kJ/mol)",
    "oxidation_state_neg": "",
    "oxidation_state_pos": "1",
    "cas_number": "7440-73-5",
    "eg_number": "231-179-0",
    "iso_1": "Francium-197",
    "iso_mass_1": "197",
    "decay_type_1": "α",
    "iso_half_1": "2.3 milliseconds",
    "iso_Z_1": "87",
    "iso_N_1": "110",
    "iso_A_1": "197",
    "iso_2": "Francium-198",
    "iso_mass_2": "198",
    "decay_type_2": "α",
    "iso_half_2": "15 milliseconds",
    "iso_Z_2": "87",
    "iso_N_2": "111",
    "iso_A_2": "198",
    "iso_3": "Francium-199",
    "iso_mass_3": "199",
    "decay_type_3": "α",
    "iso_half_3": "16 milliseconds",
    "iso_Z_3": "87",
    "iso_N_3": "112",
    "iso_A_3": "199",
    "iso_4": "Francium-200",
    "iso_mass_4": "200",
    "decay_type_4": "α",
    "iso_half_4": "24 milliseconds",
    "iso_Z_4": "87",
    "iso_N_4": "113",
    "iso_A_4": "200",
    "iso_5": "Francium-201",
    "iso_mass_5": "201",
    "decay_type_5": "α",
    "iso_half_5": "67 milliseconds",
    "iso_Z_5": "87",
    "iso_N_5": "114",
    "iso_A_5": "201",
    "iso_6": "Francium-202",
    "iso_mass_6": "202",
    "decay_type_6": "α",
    "iso_half_6": "290 milliseconds",
    "iso_Z_6": "87",
    "iso_N_6": "115",
    "iso_A_6": "202",
    "iso_7": "Francium-203",
    "iso_mass_7": "203",
    "decay_type_7": "α",
    "iso_half_7": "0.55 seconds",
    "iso_Z_7": "87",
    "iso_N_7": "116",
    "iso_A_7": "203",
    "iso_8": "Francium-204",
    "iso_mass_8": "204",
    "decay_type_8": "α",
    "iso_half_8": "1.7 seconds",
    "iso_Z_8": "87",
    "iso_N_8": "117",
    "iso_A_8": "204",
    "iso_9": "Francium-205",
    "iso_mass_9": "205",
    "decay_type_9": "α",
    "iso_half_9": "3.8 seconds",
    "iso_Z_9": "87",
    "iso_N_9": "118",
    "iso_A_9": "205",
    "iso_10": "Francium-206",
    "iso_mass_10": "206",
    "decay_type_10": "B+",
    "iso_half_10": "16 seconds",
    "iso_Z_10": "87",
    "iso_N_10": "119",
    "iso_A_10": "206",
    "iso_11": "Francium-207",
    "iso_mass_11": "207",
    "decay_type_11": "α",
    "iso_half_11": "14.8 seconds",
    "iso_Z_11": "87",
    "iso_N_11": "120",
    "iso_A_11": "207",
    "iso_12": "Francium-208",
    "iso_mass_12": "208",
    "decay_type_12": "B+",
    "iso_half_12": "59.1 seconds",
    "iso_Z_12": "87",
    "iso_N_12": "121",
    "iso_A_12": "208",
    "iso_13": "Francium-209",
    "iso_mass_13": "209",
    "decay_type_13": "α",
    "iso_half_13": "50 seconds",
    "iso_Z_13": "87",
    "iso_N_13": "122",
    "iso_A_13": "209",
    "iso_14": "Francium-210",
    "iso_mass_14": "210",
    "decay_type_14": "B+",
    "iso_half_14": "3.18 minutes",
    "iso_Z_14": "87",
    "iso_N_14": "123",
    "iso_A_14": "210",
    "iso_15": "Francium-211",
    "iso_mass_15": "211",
    "decay_type_15": "α",
    "iso_half_15": "3.10 minutes",
    "iso_Z_15": "87",
    "iso_N_15": "124",
    "iso_A_15": "211",
    "iso_16": "Francium-212",
    "iso_mass_16": "212",
    "decay_type_16": "B+",
    "iso_half_16": "20 minutes",
    "iso_Z_16": "87",
    "iso_N_16": "125",
    "iso_A_16": "212",
    "iso_17": "Francium-213",
    "iso_mass_17": "213",
    "decay_type_17": "α",
    "iso_half_17": "34.14 seconds",
    "iso_Z_17": "87",
    "iso_N_17": "126",
    "iso_A_17": "213",
    "iso_18": "Francium-214",
    "iso_mass_18": "214",
    "decay_type_18": "α",
    "iso_half_18": "5 milliseconds",
    "iso_Z_18": "87",
    "iso_N_18": "127",
    "iso_A_18": "214",
    "iso_19": "Francium-215",
    "iso_mass_19": "215",
    "decay_type_19": "α",
    "iso_half_19": "86 nanoseconds",
    "iso_Z_19": "87",
    "iso_N_19": "128",
    "iso_A_19": "215",
    "iso_20": "Francium-216",
    "iso_mass_20": "216",
    "decay_type_20": "α",
    "iso_half_20": "0.70 microseconds",
    "iso_Z_20": "87",
    "iso_N_20": "129",
    "iso_A_20": "216",
    "iso_21": "Francium-217",
    "iso_mass_21": "217",
    "decay_type_21": "α",
    "iso_half_21": "16.8 microseconds",
    "iso_Z_21": "87",
    "iso_N_21": "130",
    "iso_A_21": "217",
    "iso_22": "Francium-218",
    "iso_mass_22": "218",
    "decay_type_22": "α",
    "iso_half_22": "1 millisecond",
    "iso_Z_22": "87",
    "iso_N_22": "131",
    "iso_A_22": "218",
    "iso_23": "Francium-219",
    "iso_mass_23": "219",
    "decay_type_23": "α",
    "iso_half_23": "20 milliseconds",
    "iso_Z_23": "87",
    "iso_N_23": "132",
    "iso_A_23": "219",
    "iso_24": "Francium-220",
    "iso_mass_24": "220",
    "decay_type_24": "α",
    "iso_half_24": "27.4 seconds",
    "iso_Z_24": "87",
    "iso_N_24": "133",
    "iso_A_24": "220",
    "iso_25": "Francium-221",
    "iso_mass_25": "221",
    "decay_type_25": "α",
    "iso_half_25": "4.8 minutes",
    "iso_Z_25": "87",
    "iso_N_25": "134",
    "iso_A_25": "221",
    "iso_26": "Francium-222",
    "iso_mass_26": "222",
    "decay_type_26": "B-",
    "iso_half_26": "14.2 minutes",
    "iso_Z_26": "87",
    "iso_N_26": "135",
    "iso_A_26": "222",
    "iso_27": "Francium-223",
    "iso_mass_27": "223",
    "decay_type_27": "B-",
    "iso_half_27": "21.8 minutes",
    "iso_Z_27": "87",
    "iso_N_27": "136",
    "iso_A_27": "223",
    "iso_28": "Francium-224",
    "iso_mass_28": "224",
    "decay_type_28": "B-",
    "iso_half_28": "3.33 minutes",
    "iso_Z_28": "87",
    "iso_N_28": "137",
    "iso_A_28": "224",
    "iso_29": "Francium-225",
    "iso_mass_29": "225",
    "decay_type_29": "B-",
    "iso_half_29": "4.0 minutes",
    "iso_Z_29": "87",
    "iso_N_29": "138",
    "iso_A_29": "225",
    "iso_30": "Francium-226",
    "iso_mass_30": "226",
    "decay_type_30": "B-",
    "iso_half_30": "49.1 seconds",
    "iso_Z_30": "87",
    "iso_N_30": "139",
    "iso_A_30": "226",
    "iso_31": "Francium-227",
    "iso_mass_31": "227",
    "decay_type_31": "B-",
    "iso_half_31": "2.0 minutes",
    "iso_Z_31": "87",
    "iso_N_31": "140",
    "iso_A_31": "227",
    "iso_32": "Francium-228",
    "iso_mass_32": "228",
    "decay_type_32": "B-",
    "iso_half_32": "38.0 seconds",
    "iso_Z_32": "87",
    "iso_N_32": "141",
    "iso_A_32": "228",
    "iso_33": "Francium-229",
    "iso_mass_33": "229",
    "decay_type_33": "B-",
    "iso_half_33": "50.0 seconds",
    "iso_Z_33": "87",
    "iso_N_33": "142",
    "iso_A_33": "229",
    "iso_34": "Francium-230",
    "iso_mass_34": "230",
    "decay_type_34": "B-",
    "iso_half_34": "20.0 seconds",
    "iso_Z_34": "87",
    "iso_N_34": "143",
    "iso_A_34": "230",
    "iso_35": "Francium-231",
    "iso_mass_35": "231",
    "decay_type_35": "B-",
    "iso_half_35": "17.0 seconds",
    "iso_Z_35": "87",
    "iso_N_35": "144",
    "iso_A_35": "231",
    "iso_36": "Francium-232",
    "iso_mass_36": "232",
    "decay_type_36": "B-",
    "iso_half_36": "15.0 seconds",
    "iso_Z_36": "87",
    "iso_N_36": "145",
    "iso_A_36": "232",
    "iso_37": "Francium-233",
    "iso_mass_37": "233",
    "decay_type_37": "B-",
    "iso_half_37": "14.0 seconds",
    "iso_Z_37": "87",
    "iso_N_37": "146",
    "iso_A_37": "233",
    "iso_38": "Francium-234",
    "iso_mass_38": "234",
    "decay_type_38": "B-",
    "iso_half_38": "13.0 seconds",
    "iso_Z_38": "87",
    "iso_N_38": "147",
    "iso_A_38": "234",
    "crystal_structure": "Body-centered cubic (bcc)",
    "lattice_constants": null,
    "debye_temperature": {
      "low_temperature_limit": null,
      "room_temperature": null
    }
  }
]