[
  {
    "element_code": "AAkwhviu4kEBUZfnYZZ",
    "wikilink": "https://en.wikipedia.org/wiki/Gadolinium",
    "link": "https://upload.wikimedia.org/wikipedia/commons/d/d1/Gadolinium-4.jpg",
    "description": "Gadolinium is a chemical element with the symbol Gd and atomic number 64. Gadolinium is a silvery-white metal when oxidation is removed. It is only slightly malleable and is a ductile rare-earth element. Gadolinium reacts with atmospheric oxygen or moisture slowly to form a black coating. Gadolinium below its Curie point of 20 °C (68 °F) is ferromagnetic, with an attraction to a magnetic field higher than that of nickel. Above this temperature it is the most paramagnetic element. It is found in nature only in an oxidized form. When separated, it usually has impurities of the other rare-earths because of their similar chemical properties.",
    "element": "Gadolinium",
    "short": "Gd",
    "element_year": "1880",
    "element_discovered_name": "Jean Charles Galissard de Marignac",
    "element_group": "Lanthanoids",
    "element_appearance": "Silvery White",
    "element_electrons": "64",
    "element_protons": "64",
    "element_neutron_common": "94",
    "radioactive": "No",
    "neutron_cross_sectional": "49000 (b)",
    "electrical_type": "Conductor",
    "resistivity": "1.310 μΩm",
    "resistivity_mult": "0.000001",
    "magnetic_type": "Ferromagnetic",
    "superconducting_point": "---",
    "element_atomic_number": "64",
    "element_atomicmass": "157.25 (u)",
    "element_density": "7.90 (g/cm^3)",
    "element_electronegativty": "1.20",
    "element_block": "f - block",
    "element_shells_electrons": "K2 L8 18 N25 O9 P2 Q0 R0",
    "element_model": "https://upload.wikimedia.org/wikipedia/commons/thumb/0/05/Electron_shell_064_Gadolinium_-_no_label.svg/800px-Electron_shell_064_Gadolinium_-_no_label.svg.png",
    "element_boiling_kelvin": "3273 (K)",
    "element_boiling_celsius": "3000 (°C)",
    "element_boiling_fahrenheit": "5432 (°F)",
    "element_melting_kelvin": "1585 (K)",
    "element_melting_celsius": "1312 (°C)",
    "element_melting_fahrenheit": "2394 (°F)",
    "element_electron_config": "4f^7 5d^1 6s^2",
    "element_ion_charge": "Gd^3+",
    "element_ionization_energy1": "6.1501 (eV)",
    "element_ionization_energy2": "12.09 (eV)",
    "element_ionization_energy3": "20.63 (eV)",
    "element_ionization_energy4": "44.0 (eV)",
    "element_atomic_radius_e": "180 (pm)",
    "element_atomic_radius": "233 (pm)",
    "element_covalent_radius": "--- (pm)",
    "element_van_der_waals": "---",
    "element_phase": "Solid",
    "element_fusion_heat": "10.0 (kJ/mol)",
    "element_specific_heat_capacity": "0.236 J/(g·K)",
    "element_vaporization_heat": "301.3 (kJ/mol)",
    "oxidation_state_neg": "0",
    "oxidation_state_pos": "1 2 3",
    "speed_of_sound_gas": "---",
    "speed_of_sound_liquid": "---",
    "speed_of_sound_solid": "2680 (m/s) [20°C]",
    "mohs_hardness": "---",
    "vickers_hardness": "510-950 (MPa)",
    "brinell_hardness": "---",
    "young_modulus": "54.8 (GPa) [α-form]",
    "poisson_ratio": "0.259 [α-form]",
    "bulk_modulus": "37.9 (GPa) [α-form]",
    "shear_modulus": "21.8 (GPa) [α-form]",
    "sea_water": "0.00070",
    "crustal_rocks": "6.3",
    "sun": "0.37",
    "solar_system": "0.33",
    "cas_number": "7440-54-2",
    "eg_number": "231-162-2",
    "iso_1": "Gd-135",
    "iso_mass_1": "134.95250",
    "decay_type_1": "B+",
    "iso_half_1": "1.1 s",
    "iso_Z_1": "64",
    "iso_N_1": "71",
    "iso_A_1": "135",
    "iso_2": "Gd-136",
    "iso_mass_2": "135.94730",
    "decay_type_2": "B+",
    "iso_half_2": "1 s",
    "iso_Z_2": "64",
    "iso_N_2": "72",
    "iso_A_2": "136",
    "iso_3": "Gd-137",
    "iso_mass_3": "136.94502",
    "decay_type_3": "B+",
    "iso_half_3": "2.2 s",
    "iso_Z_3": "64",
    "iso_N_3": "73",
    "iso_A_3": "137",
    "iso_4": "Gd-138",
    "iso_mass_4": "137.94025",
    "decay_type_4": "B+",
    "iso_half_4": "4.7 s",
    "iso_Z_4": "64",
    "iso_N_4": "74",
    "iso_A_4": "138",
    "iso_5": "Gd-139",
    "iso_mass_5": "138.93813",
    "decay_type_5": "B+",
    "iso_half_5": "5.7 s",
    "iso_Z_5": "64",
    "iso_N_5": "75",
    "iso_A_5": "139",
    "iso_6": "Gd-140",
    "iso_mass_6": "139.93367",
    "decay_type_6": "B+",
    "iso_half_6": "15.8 s",
    "iso_Z_6": "64",
    "iso_N_6": "76",
    "iso_A_6": "140",
    "iso_7": "Gd-141",
    "iso_mass_7": "140.93213",
    "decay_type_7": "B+",
    "iso_half_7": "14 s",
    "iso_Z_7": "64",
    "iso_N_7": "77",
    "iso_A_7": "141",
    "iso_8": "Gd-142",
    "iso_mass_8": "141.92812",
    "decay_type_8": "B+",
    "iso_half_8": "70.2 s",
    "iso_Z_8": "64",
    "iso_N_8": "78",
    "iso_A_8": "142",
    "iso_9": "Gd-143",
    "iso_mass_9": "142.92675",
    "decay_type_9": "B+",
    "iso_half_9": "39 s",
    "iso_Z_9": "64",
    "iso_N_9": "79",
    "iso_A_9": "143",
    "iso_10": "Gd-144",
    "iso_mass_10": "143.92296",
    "decay_type_10": "B+",
    "iso_half_10": "4.47 min",
    "iso_Z_10": "64",
    "iso_N_10": "80",
    "iso_A_10": "144",
    "iso_11": "Gd-145",
    "iso_mass_11": "144.92171",
    "decay_type_11": "B+",
    "iso_half_11": "23 min",
    "iso_Z_11": "64",
    "iso_N_11": "81",
    "iso_A_11": "145",
    "iso_12": "Gd-146",
    "iso_mass_12": "145.91832",
    "decay_type_12": "B+",
    "iso_half_12": "48.27 d",
    "iso_Z_12": "64",
    "iso_N_12": "82",
    "iso_A_12": "146",
    "iso_13": "Gd-147",
    "iso_mass_13": "146.91910",
    "decay_type_13": "B+",
    "iso_half_13": "38.06 h",
    "iso_Z_13": "64",
    "iso_N_13": "83",
    "iso_A_13": "147",
    "iso_14": "Gd-148",
    "iso_mass_14": "147.91812",
    "decay_type_14": "B+",
    "iso_half_14": "74.6 y",
    "iso_Z_14": "64",
    "iso_N_14": "84",
    "iso_A_14": "148",
    "iso_15": "Gd-149",
    "iso_mass_15": "148.91934",
    "decay_type_15": "B+",
    "iso_half_15": "9.28 d",
    "iso_Z_15": "64",
    "iso_N_15": "85",
    "iso_A_15": "149",
    "iso_16": "Gd-150",
    "iso_mass_16": "149.91866",
    "decay_type_16": "B+",
    "iso_half_16": "1.79×10^6 y",
    "iso_Z_16": "64",
    "iso_N_16": "86",
    "iso_A_16": "150",
    "iso_17": "Gd-151",
    "iso_mass_17": "150.92036",
    "decay_type_17": "B+",
    "iso_half_17": "124.0 d",
    "iso_Z_17": "64",
    "iso_N_17": "87",
    "iso_A_17": "151",
    "iso_18": "Gd-152",
    "iso_mass_18": "151.91979",
    "decay_type_18": "alpha",
    "iso_half_18": "1.08×10^14 y",
    "iso_Z_18": "64",
    "iso_N_18": "88",
    "iso_A_18": "152",
    "iso_19": "Gd-153",
    "iso_mass_19": "152.92124",
    "decay_type_19": "B+",
    "iso_half_19": "240.4 d",
    "iso_Z_19": "64",
    "iso_N_19": "89",
    "iso_A_19": "153",
    "iso_20": "Gd-154",
    "iso_mass_20": "153.92087",
    "decay_type_20": "stable",
    "iso_half_20": "stable",
    "iso_Z_20": "64",
    "iso_N_20": "90",
    "iso_A_20": "154",
    "iso_21": "Gd-155",
    "iso_mass_21": "154.92263",
    "decay_type_21": "stable",
    "iso_half_21": "stable",
    "iso_Z_21": "64",
    "iso_N_21": "91",
    "iso_A_21": "155",
    "iso_22": "Gd-156",
    "iso_mass_22": "155.92213",
    "decay_type_22": "stable",
    "iso_half_22": "stable",
    "iso_Z_22": "64",
    "iso_N_22": "92",
    "iso_A_22": "156",
    "iso_23": "Gd-157",
    "iso_mass_23": "156.92397",
    "decay_type_23": "stable",
    "iso_half_23": "stable",
    "iso_Z_23": "64",
    "iso_N_23": "93",
    "iso_A_23": "157",
    "iso_24": "Gd-158",
    "iso_mass_24": "157.92411",
    "decay_type_24": "stable",
    "iso_half_24": "stable",
    "iso_Z_24": "64",
    "iso_N_24": "94",
    "iso_A_24": "158",
    "iso_25": "Gd-159",
    "iso_mass_25": "158.92639",
    "decay_type_25": "B-",
    "iso_half_25": "18.479 h",
    "iso_Z_25": "64",
    "iso_N_25": "95",
    "iso_A_25": "159",
    "iso_26": "Gd-160",
    "iso_mass_26": "159.92705",
    "decay_type_26": "B-",
    "iso_half_26": "18.479 h",
    "iso_Z_26": "64",
    "iso_N_26": "96",
    "iso_A_26": "160",
    "iso_27": "Gd-161",
    "iso_mass_27": "160.92967",
    "decay_type_27": "B-",
    "iso_half_27": "3.66 min",
    "iso_Z_27": "64",
    "iso_N_27": "97",
    "iso_A_27": "161",
    "iso_28": "Gd-162",
    "iso_mass_28": "161.93098",
    "decay_type_28": "B-",
    "iso_half_28": "2.6 min",
    "iso_Z_28": "64",
    "iso_N_28": "98",
    "iso_A_28": "162",
    "iso_29": "Gd-163",
    "iso_mass_29": "162.93409",
    "decay_type_29": "B-",
    "iso_half_29": "70 s",
    "iso_Z_29": "64",
    "iso_N_29": "99",
    "iso_A_29": "163",
    "iso_30": "Gd-164",
    "iso_mass_30": "163.93583",
    "decay_type_30": "B-",
    "iso_half_30": "30 s",
    "iso_Z_30": "64",
    "iso_N_30": "100",
    "iso_A_30": "164",
    "iso_31": "Gd-165",
    "iso_mass_31": "164.93938",
    "decay_type_31": "B-",
    "iso_half_31": "10 s",
    "iso_Z_31": "64",
    "iso_N_31": "101",
    "iso_A_31": "165",
    "iso_32": "Gd-166",
    "iso_mass_32": "165.94160",
    "decay_type_32": "B-",
    "iso_half_32": "4 s",
    "iso_Z_32": "64",
    "iso_N_32": "102",
    "iso_A_32": "166",
    "iso_33": "Gd-167",
    "iso_mass_33": "166.94557",
    "decay_type_33": "B-",
    "iso_half_33": "2 s",
    "iso_Z_33": "64",
    "iso_N_33": "103",
    "iso_A_33": "167",
    "iso_34": "Gd-168",
    "iso_mass_34": "167.94836",
    "decay_type_34": "B-",
    "iso_half_34": "1 s",
    "iso_Z_34": "64",
    "iso_N_34": "104",
    "iso_A_34": "168",
    "crystal_structure": "Hexagonal close-packed (hcp)",
    "lattice_constants": {
      "a": "3.636 Å",
      "c": "5.781 Å"
    },
    "debye_temperature": {
      "low_temperature_limit": "197 K",
      "room_temperature": "180 K"
    }
  }
]