[
  {
"element_code": "AAFTnYks3NBjqHcMqZZ",
    "wikilink": "https://en.wikipedia.org/wiki/Gold",
    "link": "https://upload.wikimedia.org/wikipedia/commons/thumb/6/69/Gold_nugget_%28Australia%29_4_%2816848647509%29.jpg/1024px-Gold_nugget_%28Australia%29_4_%2816848647509%29.jpg",
    "description": "Gold is a chemical element with the symbol Au (from Latin: aurum) and atomic number 79, making it one of the higher atomic number elements that occur naturally. In a pure form, it is a bright, slightly reddish yellow, dense, soft, malleable, and ductile metal. Chemically, gold is a transition metal and a group 11 element. It is one of the least reactive chemical elements and is solid under standard conditions. Gold often occurs in free elemental (native) form, as nuggets or grains, in rocks, in veins, and in alluvial deposits. It occurs in a solid solution series with the native element silver (as electrum) and also naturally alloyed with copper and palladium. Less commonly, it occurs in minerals as gold compounds, often with tellurium (gold tellurides).",

    "element": "Gold",
    "short": "Au",
    "element_year": "Deep Antiquity",
    "element_discovered_name": "---",
    "element_group": "Transition Metals",
    "element_appearance": "Metallic yellow",
    "element_electrons": "79",
    "element_protons": "79",
    "element_neutron_common": "118",

    "radioactive": "No",
    "neutron_cross_sectional": "98.7 (b)",

    "electrical_type": "Conductor",
    "resistivity": "22.14 nΩm",
    "resistivity_mult": "0.00000001",
    "magnetic_type": "Diamagnetic",
    "superconducting_point": "---",

    "element_atomic_number": "79",
    "element_atomicmass": "196.967 (u)",
    "element_density": "19.3 (g/cm^3)",
    "element_electronegativty": "2.54",
    "element_block": "d - block",
    "element_shells_electrons": "K2 L8 M18 N32 O18 P1 Q0 R0",
    "element_model": "https://upload.wikimedia.org/wikipedia/commons/thumb/7/7f/Electron_shell_079_Gold_-_no_label.svg/800px-Electron_shell_079_Gold_-_no_label.svg.png",

    "element_boiling_kelvin": "3243 (K)",
    "element_boiling_celsius": "2970 (°C)",
    "element_boiling_fahrenheit": "5378 (°F)",
    "element_melting_kelvin": "1337.33 (K)",
    "element_melting_celsius": "1064.18 (°C)",
    "element_melting_fahrenheit": "1947.52 (°F)",

    "element_electron_config": "4f^14, 5d^10, 6s^1",
    "element_ion_charge": "Au^+, Au^3+",
    "element_ionization_energy1": "9.2255 (eV)",
    "element_ionization_energy2": "20.5 (eV)",
    "element_ionization_energy3": "30 (eV)",
    "element_atomic_radius_e": "135 (pm)",
    "element_atomic_radius": "174 (pm)",
    "element_covalent_radius": "144 (pm)",
    "element_van_der_waals": "166 (pm)",

    "element_phase": "Solid",
    "element_fusion_heat": "12.55 (kJ/mol)",
    "element_specific_heat_capacity": "0.129 J/(g·K)",
    "element_vaporization_heat": "342 (kJ/mol)",

    "oxidation_state_neg": "3 2 1 0",
    "oxidation_state_pos": "1 2 3 5",

    "speed_of_sound_gas": "---",
    "speed_of_sound_liquid": "---",
    "speed_of_sound_solid": "2030 (m/s) [room temperature, hard-drawn]",

    "mohs_hardness": "2.5",
    "vickers_hardness": "188-216 (MPa)",
    "brinell_hardness": "188-245 (MPa)",

    "young_modulus": "78 (GPa)",
    "poisson_ratio": "0.44",
    "bulk_modulus": "180 (GPa)",
    "shear_modulus": "27 (GPa)",

    "sea_water": "0.011",
    "crustal_rocks": "0.002",
    "sun": "0.3",
    "solar_system": "0.19",

    "cas_number": "7440-57-5",
    "eg_number": "231-165-9",
    "health": 2,
    "flammability": 0,
    "instability": 0,

      "iso_1": "Au-170",
      "iso_mass_1": "169.99602",
      "decay_type_1": "p",
      "iso_half_1": "286 μs",
      "iso_Z_1": "79",
      "iso_N_1": "91",
      "iso_A_1": "170",

      "iso_2": "Au-171",
      "iso_mass_2": "170.99188",
      "decay_type_2": "p",
      "iso_half_2": "22 μs",
      "iso_Z_2": "79",
      "iso_N_2": "92",
      "iso_A_2": "171",

      "iso_3": "Au-172",
      "iso_mass_3": "171.99000",
      "decay_type_3": "α",
      "iso_half_3": "28 ms",
      "iso_Z_3": "79",
      "iso_N_3": "93",
      "iso_A_3": "172",

      "iso_4": "Au-173",
      "iso_mass_4": "172.98622",
      "decay_type_4": "α",
      "iso_half_4": "25.5 ms",
      "iso_Z_4": "79",
      "iso_N_4": "94",
      "iso_A_4": "173",

      "iso_5": "Au-174",
      "iso_mass_5": "173.98491",
      "decay_type_5": "α",
      "iso_half_5": "139 ms",
      "iso_Z_5": "79",
      "iso_N_5": "95",
      "iso_A_5": "174",

      "iso_6": "Au-175",
      "iso_mass_6": "174.98132",
      "decay_type_6": "α",
      "iso_half_6": "200 ms",
      "iso_Z_6": "79",
      "iso_N_6": "96",
      "iso_A_6": "175",

      "iso_7": "Au-176",
      "iso_mass_7": "175.98012",
      "decay_type_7": "α",
      "iso_half_7": "1.05 s",
      "iso_Z_7": "79",
      "iso_N_7": "97",
      "iso_A_7": "176",

      "iso_8": "Au-177",
      "iso_mass_8": "176.97687",
      "decay_type_8": "B+",
      "iso_half_8": "1.501 s",
      "iso_Z_8": "79",
      "iso_N_8": "98",
      "iso_A_8": "177",

      "iso_9": "Au-178",
      "iso_mass_9": "177.97606",
      "decay_type_9": "B+",
      "iso_half_9": "3.4 s",
      "iso_Z_9": "79",
      "iso_N_9": "99",
      "iso_A_9": "178",

      "iso_10": "Au-179",
      "iso_mass_10": "178.97317",
      "decay_type_10": "B+",
      "iso_half_10": "7.1 s",
      "iso_Z_10": "79",
      "iso_N_10": "100",
      "iso_A_10": "179",

      "iso_11": "Au-180",
      "iso_mass_11": "179.97249",
      "decay_type_11": "B+",
      "iso_half_11": "7.9 s",
      "iso_Z_11": "79",
      "iso_N_11": "101",
      "iso_A_11": "180",

      "iso_12": "Au-181",
      "iso_mass_12": "180.97008",
      "decay_type_12": "B+",
      "iso_half_12": "13.7 s",
      "iso_Z_12": "79",
      "iso_N_12": "102",
      "iso_A_12": "181",

      "iso_13": "Au-182",
      "iso_mass_13": "181.96961",
      "decay_type_13": "B+",
      "iso_half_13": "15.5 s",
      "iso_Z_13": "79",
      "iso_N_13": "103",
      "iso_A_13": "182",

      "iso_14": "Au-183",
      "iso_mass_14": "182.96759",
      "decay_type_14": "B+",
      "iso_half_14": "42.8 s",
      "iso_Z_14": "79",
      "iso_N_14": "104",
      "iso_A_14": "183",

      "iso_15": "Au-184",
      "iso_mass_15": "183.96745",
      "decay_type_15": "B+",
      "iso_half_15": "20.6 s",
      "iso_Z_15": "79",
      "iso_N_15": "105",
      "iso_A_15": "184",

      "iso_16": "Au-185",
      "iso_mass_16": "184.96580",
      "decay_type_16": "B+",
      "iso_half_16": "4.25 min",
      "iso_Z_16": "79",
      "iso_N_16": "106",
      "iso_A_16": "185",

      "iso_17": "Au-186",
      "iso_mass_17": "185.96595",
      "decay_type_17": "B+",
      "iso_half_17": "10.7 min",
      "iso_Z_17": "79",
      "iso_N_17": "107",
      "iso_A_17": "186",

      "iso_18": "Au-187",
      "iso_mass_18": "186.96457",
      "decay_type_18": "B+",
      "iso_half_18": "8.4 min",
      "iso_Z_18": "79",
      "iso_N_18": "108",
      "iso_A_18": "187",

      "iso_19": "Au-188",
      "iso_mass_19": "187.96532",
      "decay_type_19": "B+",
      "iso_half_19": "15.2 min",
      "iso_Z_19": "79",
      "iso_N_19": "109",
      "iso_A_19": "188",

      "iso_20": "Au-189",
      "iso_mass_20": "188.963948",
      "decay_type_20": "B+",
      "iso_half_20": "11.4 min",
      "iso_Z_20": "79",
      "iso_N_20": "110",
      "iso_A_20": "189",

      "iso_21": "Au-190",
      "iso_mass_21": "189.96470",
      "decay_type_21": "B+",
      "iso_half_21": "30.1 min",
      "iso_Z_21": "79",
      "iso_N_21": "111",
      "iso_A_21": "190",

      "iso_22": "Au-191",
      "iso_mass_22": "190.96370",
      "decay_type_22": "B+",
      "iso_half_22": "3.18 h",
      "iso_Z_22": "79",
      "iso_N_22": "112",
      "iso_A_22": "191",

      "iso_23": "Au-192",
      "iso_mass_23": "191.96481",
      "decay_type_23": "B+",
      "iso_half_23": "4.94 h",
      "iso_Z_23": "79",
      "iso_N_23": "113",
      "iso_A_23": "192",

      "iso_24": "Au-193",
      "iso_mass_24": "192.96415",
      "decay_type_24": "B+",
      "iso_half_24": "17.65 h",
      "iso_Z_24": "79",
      "iso_N_24": "114",
      "iso_A_24": "193",

      "iso_25": "Au-194",
      "iso_mass_25": "193.96535",
      "decay_type_25": "B+",
      "iso_half_25": "38.02 h",
      "iso_Z_25": "79",
      "iso_N_25": "115",
      "iso_A_25": "194",

      "iso_26": "Au-195",
      "iso_mass_26": "194.96503",
      "decay_type_26": "B+",
      "iso_half_26": "186.1 d",
      "iso_Z_26": "79",
      "iso_N_26": "116",
      "iso_A_26": "195",

      "iso_27": "Au-196",
      "iso_mass_27": "195.96657",
      "decay_type_27": "B+",
      "iso_half_27": "6.183 d",
      "iso_Z_27": "79",
      "iso_N_27": "117",
      "iso_A_27": "196",

      "iso_28": "Au-197",
      "iso_mass_28": "196.966568",
      "decay_type_28": "stable",
      "iso_half_28": "N/A",
      "iso_Z_28": "79",
      "iso_N_28": "118",
      "iso_A_28": "197",

      "iso_29": "Au-198",
      "iso_mass_29": "197.968242",
      "decay_type_29": "B-",
      "iso_half_29": "2.69517 d",
      "iso_Z_29": "79",
      "iso_N_29": "119",
      "iso_A_29": "198",

      "iso_30": "Au-199",
      "iso_mass_30": "198.968765",
      "decay_type_30": "B-",
      "iso_half_30": "3.169 d",
      "iso_Z_30": "79",
      "iso_N_30": "120",
      "iso_A_30": "199",

      "iso_31": "Au-200",
      "iso_mass_31": "199.97073",
      "decay_type_31": "B-",
      "iso_half_31": "48.4 min",
      "iso_Z_31": "79",
      "iso_N_31": "121",
      "iso_A_31": "200",

      "iso_32": "Au-201",
      "iso_mass_32": "200.971657",
      "decay_type_32": "B-",
      "iso_half_32": "26.1 min",
      "iso_Z_32": "79",
      "iso_N_32": "122",
      "iso_A_32": "201",

      "iso_33": "Au-202",
      "iso_mass_33": "201.97381",
      "decay_type_33": "B-",
      "iso_half_33": "5.3 min",
      "iso_Z_33": "79",
      "iso_N_33": "123",
      "iso_A_33": "202",

      "iso_34": "Au-203",
      "iso_mass_34": "202.975155",
      "decay_type_34": "B-",
      "iso_half_34": "53 s",
      "iso_Z_34": "79",
      "iso_N_34": "124",
      "iso_A_34": "203",

      "iso_35": "Au-204",
      "iso_mass_35": "203.97772",
      "decay_type_35": "B-",
      "iso_half_35": "42.8 s",
      "iso_Z_35": "79",
      "iso_N_35": "125",
      "iso_A_35": "204",

      "iso_36": "Au-205",
      "iso_mass_36": "204.97987",
      "decay_type_36": "B-",
      "iso_half_36": "31.8 s",
      "iso_Z_36": "79",
      "iso_N_36": "126",
      "iso_A_36": "205",

      "iso_37": "Au-206",
      "iso_mass_37": "205.98474",
      "decay_type_37": "B-",
      "iso_half_37": "20 s",
      "iso_Z_37": "79",
      "iso_N_37": "127",
      "iso_A_37": "206",

      "iso_38": "Au-207",
      "iso_mass_38": "206.98840",
      "decay_type_38": "B-",
      "iso_half_38": "13 s",
      "iso_Z_38": "79",
      "iso_N_38": "128",
      "iso_A_38": "207",

      "iso_39": "Au-208",
      "iso_mass_39": "207.99345",
      "decay_type_39": "B-",
      "iso_half_39": "7 s",
      "iso_Z_39": "79",
      "iso_N_39": "129",
      "iso_A_39": "208",

      "iso_40": "Au-209",
      "iso_mass_40": "208.99735",
      "decay_type_40": "B-",
      "iso_half_40": "5 s",
      "iso_Z_40": "79",
      "iso_N_40": "130",
      "iso_A_40": "209"
  }
]