[
  {
"element_code": "AAFsKkJcxivc83R2XZZ",
    "wikilink": "https://en.wikipedia.org/wiki/Hafnium",
    "link": "https://upload.wikimedia.org/wikipedia/commons/thumb/3/38/Hf-crystal_bar.jpg/1280px-Hf-crystal_bar.jpg",
    "description": "Hafnium is a chemical element with the symbol Hf and atomic number 72. A lustrous, silvery gray, tetravalent transition metal, hafnium chemically resembles zirconium and is found in many zirconium minerals. Its existence was predicted by Dmitri Mendeleev in 1869, though it was not identified until 1923, by Coster and Hevesy, making it the last stable element to be discovered. Hafnium is named after Hafnia, the Latin name for Copenhagen, where it was discovered.",

    "element": "Hafnium",
    "short": "Hf",
    "element_year": "1922",
    "element_discovered_name": "Dirk Coster",
    "element_group": "Transition Metals",
    "element_appearance": "Steel Gray",
    "element_electrons": "72",
    "element_protons": "72",
    "element_neutron_common": "108",

    "radioactive": "No",
    "neutron_cross_sectional": "104 (b)",

    "electrical_type": "Conductor",
    "resistivity": "3",
    "resistivity_mult": "0.0000001",
    "magnetic_type": "Paramagnetic",
    "superconducting_point": "0.128",

    "element_atomic_number": "72",
    "element_atomicmass": "178.486 (u)",
    "element_density": "13.3 (g/cm^3)",
    "element_electronegativty": "1.3",
    "element_block": "d - block",
    "element_shells_electrons": "K2 L8 M8 N32 O10 P2 Q0 R0",
    "element_model": "https://upload.wikimedia.org/wikipedia/commons/thumb/4/4d/Electron_shell_072_Hafnium_-_no_label.svg/800px-Electron_shell_072_Hafnium_-_no_label.svg.png",

    "element_boiling_kelvin": "4876 (K)",
    "element_boiling_celsius": "4603 (°C)",
    "element_boiling_fahrenheit": "8317 (°F)",
    "element_melting_kelvin": "2506 (K)",
    "element_melting_celsius": "2233 (°C)",
    "element_melting_fahrenheit": "4051 (°F)",

    "element_electron_config": "4f^14, 5d^2, 6s^2",
    "element_ion_charge": "Hf^4+",
    "element_ionization_energy1": "6.82507 (eV)",
    "element_ionization_energy2": "14.9 (eV)",
    "element_ionization_energy3": "23.3 (eV)",
    "element_ionization_energy4": "33.33 (eV)",
    "element_atomic_radius_e": "155 (pm)",
    "element_atomic_radius": "208 (pm)",
    "element_covalent_radius": "150 (pm)",
    "element_van_der_waals": "--- (pm)",

    "element_phase": "Solid",
    "element_fusion_heat": "27.2 (kJ/mol)",
    "element_specific_heat_capacity": "0.144 J/(g·K)",
    "element_vaporization_heat": "648 (kJ/mol)",

    "oxidation_state_neg": "2",
    "oxidation_state_pos": "1 2 3 4",

    "speed_of_sound_gas": "---",
    "speed_of_sound_liquid": "---",
    "speed_of_sound_solid": "3010 (m/s) [20°C]",

    "mohs_hardness": "5.5",
    "vickers_hardness": "1520-2060 (MPa)",
    "brinell_hardness": "1450-2100 (MPa)",

    "young_modulus": "78 (GPa)",
    "poisson_ratio": "0.37",
    "bulk_modulus": "110 (GPa)",
    "shear_modulus": "30 (GPa)",

    "sea_water": "<0.008",
    "crustal_rocks": "4",
    "sun": "0.21",
    "solar_system": "0.15",

    "cas_number": "7440-58-6",
    "eg_number": "231-166-4",

      "iso_1": "Hf-153",
      "iso_mass_1": "152.97069",
      "decay_type_1": "B+",
      "iso_half_1": "400 ms",
      "iso_Z_1": "72",
      "iso_N_1": "81",
      "iso_A_1": "153",

      "iso_2": "Hf-154",
      "iso_mass_2": "153.96486",
      "decay_type_2": "B+",
      "iso_half_2": "2 s",
      "iso_Z_2": "72",
      "iso_N_2": "82",
      "iso_A_2": "154",

      "iso_3": "Hf-155",
      "iso_mass_3": "154.96339",
      "decay_type_3": "B+",
      "iso_half_3": "890 ms",
      "iso_Z_3": "72",
      "iso_N_3": "83",
      "iso_A_3": "155",

      "iso_4": "Hf-156",
      "iso_mass_4": "155.95936",
      "decay_type_4": "α",
      "iso_half_4": "23 ms",
      "iso_Z_4": "72",
      "iso_N_4": "84",
      "iso_A_4": "156",

      "iso_5": "Hf-157",
      "iso_mass_5": "156.95840",
      "decay_type_5": "α",
      "iso_half_5": "115 ms",
      "iso_Z_5": "72",
      "iso_N_5": "85",
      "iso_A_5": "157",

      "iso_6": "Hf-158",
      "iso_mass_6": "157.95480",
      "decay_type_6": "B+",
      "iso_half_6": "2.84 s",
      "iso_Z_6": "72",
      "iso_N_6": "86",
      "iso_A_6": "158",

      "iso_7": "Hf-159",
      "iso_mass_7": "158.95399",
      "decay_type_7": "B+",
      "iso_half_7": "5.20 s",
      "iso_Z_7": "72",
      "iso_N_7": "87",
      "iso_A_7": "159",

      "iso_8": "Hf-160",
      "iso_mass_8": "159.95068",
      "decay_type_8": "B+",
      "iso_half_8": "13.6 s",
      "iso_Z_8": "72",
      "iso_N_8": "88",
      "iso_A_8": "160",

      "iso_9": "Hf-161",
      "iso_mass_9": "160.95028",
      "decay_type_9": "B+",
      "iso_half_9": "18.2 s",
      "iso_Z_9": "72",
      "iso_N_9": "89",
      "iso_A_9": "161",

      "iso_10": "Hf-162",
      "iso_mass_10": "161.94721",
      "decay_type_10": "B+",
      "iso_half_10": "39.4 s",
      "iso_Z_10": "72",
      "iso_N_10": "90",
      "iso_A_10": "162",

      "iso_11": "Hf-163",
      "iso_mass_11": "162.94709",
      "decay_type_11": "B+",
      "iso_half_11": "40.0 s",
      "iso_Z_11": "72",
      "iso_N_11": "91",
      "iso_A_11": "163",

      "iso_12": "Hf-164",
      "iso_mass_12": "163.94437",
      "decay_type_12": "B+",
      "iso_half_12": "111 s",
      "iso_Z_12": "72",
      "iso_N_12": "92",
      "iso_A_12": "164",

      "iso_13": "Hf-165",
      "iso_mass_13": "164.94457",
      "decay_type_13": "B+",
      "iso_half_13": "76 s",
      "iso_Z_13": "72",
      "iso_N_13": "93",
      "iso_A_13": "165",

      "iso_14": "Hf-166",
      "iso_mass_14": "165.94218",
      "decay_type_14": "B+",
      "iso_half_14": "6.77 min",
      "iso_Z_14": "72",
      "iso_N_14": "94",
      "iso_A_14": "166",

      "iso_15": "Hf-167",
      "iso_mass_15": "166.94260",
      "decay_type_15": "B+",
      "iso_half_15": "2.05 min",
      "iso_Z_15": "72",
      "iso_N_15": "95",
      "iso_A_15": "167",

      "iso_16": "Hf-168",
      "iso_mass_16": "167.94057",
      "decay_type_16": "B+",
      "iso_half_16": "25.95 min",
      "iso_Z_16": "72",
      "iso_N_16": "96",
      "iso_A_16": "168",

      "iso_17": "Hf-169",
      "iso_mass_17": "168.94126",
      "decay_type_17": "B+",
      "iso_half_17": "3.24 min",
      "iso_Z_17": "72",
      "iso_N_17": "97",
      "iso_A_17": "169",

      "iso_18": "Hf-170",
      "iso_mass_18": "169.93961",
      "decay_type_18": "EC",
      "iso_half_18": "16.01 h",
      "iso_Z_18": "72",
      "iso_N_18": "98",
      "iso_A_18": "170",

      "iso_19": "Hf-171",
      "iso_mass_19": "170.94049",
      "decay_type_19": "B+",
      "iso_half_19": "12.1 h",
      "iso_Z_19": "72",
      "iso_N_19": "99",
      "iso_A_19": "171",

      "iso_20": "Hf-172",
      "iso_mass_20": "171.93945",
      "decay_type_20": "EC",
      "iso_half_20": "1.87 y",
      "iso_Z_20": "72",
      "iso_N_20": "100",
      "iso_A_20": "172",

      "iso_21": "Hf-173",
      "iso_mass_21": "172.94051",
      "decay_type_21": "B+",
      "iso_half_21": "23.6 h",
      "iso_Z_21": "72",
      "iso_N_21": "101",
      "iso_A_21": "173",

      "iso_22": "Hf-174",
      "iso_mass_22": "173.94005",
      "decay_type_22": "α",
      "iso_half_22": "7.0 × 10^16 y",
      "iso_Z_22": "72",
      "iso_N_22": "102",
      "iso_A_22": "174",

      "iso_23": "Hf-175",
      "iso_mass_23": "174.94128",
      "decay_type_23": "stable",
      "iso_half_23": "N/A",
      "iso_Z_23": "72",
      "iso_N_23": "103",
      "iso_A_23": "175",

      "iso_24": "Hf-176",
      "iso_mass_24": "175.94141",
      "decay_type_24": "stable",
      "iso_half_24": "stable",
      "iso_Z_24": "72",
      "iso_N_24": "104",
      "iso_A_24": "176",

      "iso_25": "Hf-177",
      "iso_mass_25": "176.94323",
      "decay_type_25": "stable",
      "iso_half_25": "stable",
      "iso_Z_25": "72",
      "iso_N_25": "105",
      "iso_A_25": "177",

      "iso_26": "Hf-178",
      "iso_mass_26": "177.94371",
      "decay_type_26": "stable",
      "iso_half_26": "N/A",
      "iso_Z_26": "72",
      "iso_N_26": "106",
      "iso_A_26": "178",

      "iso_27": "Hf-179",
      "iso_mass_27": "178.94582",
      "decay_type_27": "stable",
      "iso_half_27": "N/A",
      "iso_Z_27": "72",
      "iso_N_27": "107",
      "iso_A_27": "179",

      "iso_28": "Hf-180",
      "iso_mass_28": "179.94655",
      "decay_type_28": "stable",
      "iso_half_28": "N/A",
      "iso_Z_28": "72",
      "iso_N_28": "108",
      "iso_A_28": "180",

      "iso_29": "Hf-181",
      "iso_mass_29": "180.94910",
      "decay_type_29": "B-",
      "iso_half_29": "42.39 d",
      "iso_Z_29": "72",
      "iso_N_29": "109",
      "iso_A_29": "181",

      "iso_30": "Hf-182",
      "iso_mass_30": "181.95056",
      "decay_type_30": "B-",
      "iso_half_30": "8.90 h",
      "iso_Z_30": "72",
      "iso_N_30": "110",
      "iso_A_30": "182",

      "iso_31": "Hf-183",
      "iso_mass_31": "182.95353",
      "decay_type_31": "B-",
      "iso_half_31": "1.092 h",
      "iso_Z_31": "72",
      "iso_N_31": "111",
      "iso_A_31": "183",

      "iso_32": "Hf-184",
      "iso_mass_32": "183.95545",
      "decay_type_32": "B-",
      "iso_half_32": "4.12 m",
      "iso_Z_32": "72",
      "iso_N_32": "112",
      "iso_A_32": "184",

      "iso_33": "Hf-185",
      "iso_mass_33": "184.95882",
      "decay_type_33": "B-",
      "iso_half_33": "1.3 m",
      "iso_Z_33": "72",
      "iso_N_33": "113",
      "iso_A_33": "185",

      "iso_34": "Hf-186",
      "iso_mass_34": "185.96089",
      "decay_type_34": "B-",
      "iso_half_34": "2.6 m",
      "iso_Z_34": "72",
      "iso_N_34": "114",
      "iso_A_34": "186",

      "iso_35": "Hf-187",
      "iso_mass_35": "186.96477",
      "decay_type_35": "B-",
      "iso_half_35": "2.0 m",
      "iso_Z_35": "72",
      "iso_N_35": "115",
      "iso_A_35": "187",

      "iso_36": "Hf-188",
      "iso_mass_36": "187.96715",
      "decay_type_36": "B-",
      "iso_half_36": "0.8 m",
      "iso_Z_36": "72",
      "iso_N_36": "116",
      "iso_A_36": "188",

      "iso_37": "Hf-189",
      "iso_mass_37": "188.97157",
      "decay_type_37": "B-",
      "iso_half_37": "0.5 m",
      "iso_Z_37": "72",
      "iso_N_37": "117",
      "iso_A_37": "189",

      "iso_38": "Hf-190",
      "iso_mass_38": "189.97441",
      "decay_type_38": "B-",
      "iso_half_38": "0.3 m",
      "iso_Z_38": "72",
      "iso_N_38": "118",
      "iso_A_38": "190",

      "iso_39": "Hf-191",
      "iso_mass_39": "190.97896",
      "decay_type_39": "B-",
      "iso_half_39": "0.2 m",
      "iso_Z_39": "72",
      "iso_N_39": "119",
      "iso_A_39": "191",

      "iso_40": "Hf-192",
      "iso_mass_40": "191.98199",
      "decay_type_40": "B-",
      "iso_half_40": "0.1 m",
      "iso_Z_40": "72",
      "iso_N_40": "120",
      "iso_A_40": "192"
  }
]