[
  {
    "element_code": "AA9i8GmaTr3EnXftzZZ",
    "wikilink": "https://en.wikipedia.org/wiki/Helium",
    "link": "https://upload.wikimedia.org/wikipedia/commons/thumb/8/82/Helium_discharge_tube.jpg/1920px-Helium_discharge_tube.jpg",
    "description": "Helium (from Greek: ἥλιος, romanized: Helios, lit. 'Sun') is a chemical element with the symbol He and atomic number 2. It is a colorless, odorless, tasteless, non-toxic, inert, monatomic gas, the first in the noble gas group in the periodic table. Its boiling point is the lowest among all the elements. Helium is the second lightest and second most abundant element in the observable universe (hydrogen is the lightest and most abundant). It is present at about 24% of the total elemental mass, which is more than 12 times the mass of all the heavier elements combined. Its abundance is similar to this in both the Sun and in Jupiter. This is due to the very high nuclear binding energy (per nucleon) of helium-4, with respect to the next three elements after helium. This helium-4 binding energy also accounts for why it is a product of both nuclear fusion and radioactive decay. Most helium in the universe is helium-4, the vast majority of which was formed during the Big Bang. Large amounts of new helium are being created by nuclear fusion of hydrogen in stars.",
    "element": "Helium",
    "short": "He",
    "element_year": "1868",
    "element_discovered_name": "Pierre Janssen",
    "element_group": "Noble Gases",
    "element_appearance": "Colorless Gas",
    "element_electrons": "2",
    "element_protons": "2",
    "element_neutron_common": "2",
    "radioactive": "No",
    "neutron_cross_sectional": "0.007 (b)",
    "electrical_type": "---",
    "resistivity": "---",
    "resistivity_mult": "---",
    "magnetic_type": "Diamagnetic",
    "superconducting_point": "---",
    "element_atomic_number": "2",
    "element_atomicmass": "4.00260 (u)",
    "element_density": "0.00017846 (g/cm^3)",
    "element_electronegativty": "---",
    "element_block": "s - block",
    "element_shells_electrons": "K2 L0 M0 N0 O0 P0 Q0 R0",
    "element_model": "https://upload.wikimedia.org/wikipedia/commons/thumb/8/84/Electron_shell_002_Helium_-_no_label.svg/1024px-Electron_shell_002_Helium_-_no_label.svg.png",
    "element_boiling_kelvin": "4.222 (K)",
    "element_boiling_celsius": "-272.20 (°C)",
    "element_boiling_fahrenheit": "-457.96 (°F)",
    "element_melting_kelvin": "0.95 (K)",
    "element_melting_celsius": "-268.928 (°C)",
    "element_melting_fahrenheit": "-452.070 (°F)",
    "element_electron_config": "1s^2",
    "element_ion_charge": "---",
    "element_ionization_energy1": "24.58741 (eV)",
    "element_ionization_energy2": "54.41776 (eV)",
    "element_atomic_radius_e": "120 (pm)",
    "element_atomic_radius": "31 (pm)",
    "element_covalent_radius": "32 (pm)",
    "element_van_der_waals": "140 (pm)",
    "element_phase": "Gas",
    "element_fusion_heat": "0.02 (kJ/mol)",
    "element_specific_heat_capacity": "5.193 J/(g·K)",
    "element_vaporization_heat": "0.083 (kJ/mol)",
    "oxidation_state_neg": "",
    "oxidation_state_pos": "",
    "speed_of_sound_gas": "965 (m/s) [0°C]",
    "speed_of_sound_liquid": "180 (m/s) [-268.9°C]",
    "speed_of_sound_solid": "---",
    "sea_water": "0.007",
    "crustal_rocks": null,
    "sun": "2.7× 10^9",
    "solar_system": "2.7 × 10^9",
    "iso_1": "He-3",
    "iso_mass_1": "3.01602932265",
    "iso_half_1": "Stable",
    "decay_type_1": "stable",
    "iso_Z_1": "2",
    "iso_N_1": "1",
    "iso_A_1": "3",
    "iso_2": "He-4",
    "iso_mass_2": "4.00260325413",
    "iso_half_2": "Stable",
    "decay_type_2": "stable",
    "iso_Z_2": "2",
    "iso_N_2": "2",
    "iso_A_2": "4",
    "iso_3": "He-5",
    "iso_mass_3": "5.012057",
    "iso_half_3": "700×10−24 ^(s)",
    "decay_type_3": "n",
    "iso_Z_3": "2",
    "iso_N_3": "3",
    "iso_A_3": "5",
    "iso_4": "He-6",
    "iso_mass_4": "6.01888589",
    "iso_half_4": "0.80692 (s)",
    "decay_type_4": "B-",
    "iso_Z_4": "2",
    "iso_N_4": "4",
    "iso_A_4": "6",
    "iso_5": "He-7",
    "iso_mass_5": "7.027991",
    "iso_half_5": "2.51×10^-21 (s)",
    "decay_type_5": "n",
    "iso_Z_5": "2",
    "iso_N_5": "5",
    "iso_A_5": "7",
    "iso_6": "He-8",
    "iso_mass_6": "8.03393439",
    "iso_half_6": "0.119 (s)",
    "decay_type_6": "B-",
    "iso_Z_6": "2",
    "iso_N_6": "6",
    "iso_A_6": "8",
    "iso_7": "He-9",
    "iso_mass_7": "9.04395",
    "iso_half_7": "2.5×102^-21 (s)",
    "decay_type_7": "n",
    "iso_Z_7": "2",
    "iso_N_7": "7",
    "iso_A_7": "9",
    "iso_8": "He-10",
    "iso_mass_8": "10.05282",
    "iso_half_8": "3.1×102^-21 (s)",
    "decay_type_8": "2n",
    "iso_Z_8": "2",
    "iso_N_8": "8",
    "iso_A_8": "10",
    "crystal_structure": "Hexagonal close-packed (hcp)",
    "lattice_constants": {
      "a": "3.57 Å",
      "c": "5.85 Å"
    },
    "debye_temperature": {
      "low_temperature_limit": "25 K",
      "room_temperature": "20 K"
    }
  }
]