[
  {
    "element_code": "AAKjMdiPDVNmX4JJXZZ",
    "wikilink": "https://en.wikipedia.org/wiki/Holmium",
    "link": "https://upload.wikimedia.org/wikipedia/commons/0/0a/Holmium2.jpg",
    "description": "Holmium is a chemical element with the symbol Ho and atomic number 67. Part of the lanthanide series, holmium is a rare-earth element.\n\nHolmium was discovered through isolation by Swedish chemist Per Theodor Cleve and independently by Jacques-Louis Soret and Marc Delafontaine who observed it spectroscopically in 1878. Its oxide was first isolated from rare-earth ores by Cleve in 1878. The element's name comes from Holmia, the Latin name for the city of Stockholm.",
    "element": "Holmium",
    "short": "Ho",
    "element_year": "1878",
    "element_discovered_name": "Jacques-Louis Soret",
    "element_group": "Lanthanoids",
    "element_appearance": "Silvery White",
    "element_electrons": "67",
    "element_protons": "67",
    "element_neutron_common": "98",
    "radioactive": "No",
    "neutron_cross_sectional": "65 (b)",
    "electrical_type": "Conductor",
    "resistivity": "814 nΩm",
    "resistivity_mult": "0.0000001",
    "magnetic_type": "Paramagnetic",
    "superconducting_point": "---",
    "element_atomic_number": "67",
    "element_atomicmass": "164.930 (u)",
    "element_density": "8.79 (g/cm^3)",
    "element_electronegativty": "1.23",
    "element_block": "f - block",
    "element_shells_electrons": "K2 L8 M18 N29 O8 P2 Q0 R0",
    "element_model": "https://upload.wikimedia.org/wikipedia/commons/thumb/8/80/Electron_shell_067_Holmium_-_no_label.svg/1024px-Electron_shell_067_Holmium_-_no_label.svg.png",
    "element_boiling_kelvin": "2873 (K)",
    "element_boiling_celsius": "2600 (°C)",
    "element_boiling_fahrenheit": "4712 (°F)",
    "element_melting_kelvin": "1734 (K)",
    "element_melting_celsius": "1461 (°C)",
    "element_melting_fahrenheit": "2662 (°F)",
    "element_electron_config": "4f^11 6s^2",
    "element_ion_charge": "Ho^3+",
    "element_ionization_energy1": "6.0215 (eV)",
    "element_ionization_energy2": "11.80 (eV)",
    "element_ionization_energy3": "22.84 (eV)",
    "element_ionization_energy4": "42.5 (eV)",
    "element_atomic_radius_e": "175 (pm)",
    "element_atomic_radius": "226 (pm)",
    "element_covalent_radius": "--- (pm)",
    "element_van_der_waals": "---",
    "element_phase": "Solid",
    "element_fusion_heat": "17.0 (kJ/mol)",
    "element_specific_heat_capacity": "0.165 J/(g·K)",
    "element_vaporization_heat": "251 (kJ/mol)",
    "oxidation_state_neg": "0",
    "oxidation_state_pos": "2 3",
    "speed_of_sound_gas": "---",
    "speed_of_sound_liquid": "---",
    "speed_of_sound_solid": "2760 (m/s) [20°C]",
    "mohs_hardness": "---",
    "vickers_hardness": "412-600 (MPa)",
    "brinell_hardness": "500-1250 (MPa)",
    "young_modulus": "64.8 (GPa)",
    "poisson_ratio": "0.231",
    "bulk_modulus": "40.2 (GPa)",
    "shear_modulus": "26.3 (GPa)",
    "sea_water": "0.00022",
    "crustal_rocks": "1.6",
    "sun": "0.05",
    "solar_system": "0.089",
    "cas_number": "7440-60-0",
    "eg_number": "231-169-0",
    "iso_1": "Ho-140",
    "iso_mass_1": "139.96854",
    "decay_type_1": "B+",
    "iso_half_1": "6 ms",
    "iso_Z_1": "67",
    "iso_N_1": "73",
    "iso_A_1": "140",
    "iso_2": "Ho-141",
    "iso_mass_2": "140.96310",
    "decay_type_2": "B+",
    "iso_half_2": "4.1 ms",
    "iso_Z_2": "67",
    "iso_N_2": "74",
    "iso_A_2": "141",
    "iso_3": "Ho-142",
    "iso_mass_3": "141.95977",
    "decay_type_3": "B+",
    "iso_half_3": "400 ms",
    "iso_Z_3": "67",
    "iso_N_3": "75",
    "iso_A_3": "142",
    "iso_4": "Ho-143",
    "iso_mass_4": "142.95461",
    "decay_type_4": "B+",
    "iso_half_4": "300 ms",
    "iso_Z_4": "67",
    "iso_N_4": "76",
    "iso_A_4": "143",
    "iso_5": "Ho-144",
    "iso_mass_5": "143.95148",
    "decay_type_5": "B+",
    "iso_half_5": "0.7 s",
    "iso_Z_5": "67",
    "iso_N_5": "77",
    "iso_A_5": "144",
    "iso_6": "Ho-145",
    "iso_mass_6": "144.94720",
    "decay_type_6": "B+",
    "iso_half_6": "2.4 s",
    "iso_Z_6": "67",
    "iso_N_6": "78",
    "iso_A_6": "145",
    "iso_7": "Ho-146",
    "iso_mass_7": "145.94464",
    "decay_type_7": "B+",
    "iso_half_7": "3.6 s",
    "iso_Z_7": "67",
    "iso_N_7": "79",
    "iso_A_7": "146",
    "iso_8": "Ho-147",
    "iso_mass_8": "146.94006",
    "decay_type_8": "B+",
    "iso_half_8": "5.8 s",
    "iso_Z_8": "67",
    "iso_N_8": "80",
    "iso_A_8": "147",
    "iso_9": "Ho-148",
    "iso_mass_9": "147.93772",
    "decay_type_9": "B+",
    "iso_half_9": "2.2 s",
    "iso_Z_9": "67",
    "iso_N_9": "81",
    "iso_A_9": "148",
    "iso_10": "Ho-149",
    "iso_mass_10": "148.93378",
    "decay_type_10": "B+",
    "iso_half_10": "21.1 s",
    "iso_Z_10": "67",
    "iso_N_10": "82",
    "iso_A_10": "149",
    "iso_11": "Ho-150",
    "iso_mass_11": "149.93350",
    "decay_type_11": "B+",
    "iso_half_11": "76.8 s",
    "iso_Z_11": "67",
    "iso_N_11": "83",
    "iso_A_11": "150",
    "iso_12": "Ho-151",
    "iso_mass_12": "150.93169",
    "decay_type_12": "B+",
    "iso_half_12": "35.2 s",
    "iso_Z_12": "67",
    "iso_N_12": "84",
    "iso_A_12": "151",
    "iso_13": "Ho-152",
    "iso_mass_13": "151.93172",
    "decay_type_13": "B+",
    "iso_half_13": "161.8 s",
    "iso_Z_13": "67",
    "iso_N_13": "85",
    "iso_A_13": "152",
    "iso_14": "Ho-153",
    "iso_mass_14": "152.93020",
    "decay_type_14": "B+",
    "iso_half_14": "2.01 min",
    "iso_Z_14": "67",
    "iso_N_14": "86",
    "iso_A_14": "153",
    "iso_15": "Ho-154",
    "iso_mass_15": "153.93060",
    "decay_type_15": "B+",
    "iso_half_15": "11.76 min",
    "iso_Z_15": "67",
    "iso_N_15": "87",
    "iso_A_15": "154",
    "iso_16": "Ho-155",
    "iso_mass_16": "154.92910",
    "decay_type_16": "B+",
    "iso_half_16": "48 min",
    "iso_Z_16": "67",
    "iso_N_16": "88",
    "iso_A_16": "155",
    "iso_17": "Ho-156",
    "iso_mass_17": "155.92984",
    "decay_type_17": "B+",
    "iso_half_17": "56 min",
    "iso_Z_17": "67",
    "iso_N_17": "89",
    "iso_A_17": "156",
    "iso_18": "Ho-157",
    "iso_mass_18": "156.92826",
    "decay_type_18": "B+",
    "iso_half_18": "12.6 min",
    "iso_Z_18": "67",
    "iso_N_18": "90",
    "iso_A_18": "157",
    "iso_19": "Ho-158",
    "iso_mass_19": "157.92894",
    "decay_type_19": "B+",
    "iso_half_19": "11.3 min",
    "iso_Z_19": "67",
    "iso_N_19": "91",
    "iso_A_19": "158",
    "iso_20": "Ho-159",
    "iso_mass_20": "158.92772",
    "decay_type_20": "B-",
    "iso_half_20": "144.4 d",
    "iso_Z_20": "67",
    "iso_N_20": "92",
    "iso_A_20": "159",
    "iso_21": "Ho-160",
    "iso_mass_21": "159.92706",
    "decay_type_21": "B-",
    "iso_half_21": "stable",
    "iso_Z_21": "67",
    "iso_N_21": "93",
    "iso_A_21": "160",
    "iso_22": "Ho-161",
    "iso_mass_22": "160.92828",
    "decay_type_22": "B-",
    "iso_half_22": "stable",
    "iso_Z_22": "67",
    "iso_N_22": "94",
    "iso_A_22": "161",
    "iso_23": "Ho-162",
    "iso_mass_23": "161.92764",
    "decay_type_23": "B-",
    "iso_half_23": "stable",
    "iso_Z_23": "67",
    "iso_N_23": "95",
    "iso_A_23": "162",
    "iso_24": "Ho-163",
    "iso_mass_24": "162.92873",
    "decay_type_24": "B-",
    "iso_half_24": "stable",
    "iso_Z_24": "67",
    "iso_N_24": "96",
    "iso_A_24": "163",
    "iso_25": "Ho-164",
    "iso_mass_25": "163.92920",
    "decay_type_25": "B-",
    "iso_half_25": "stable",
    "iso_Z_25": "67",
    "iso_N_25": "97",
    "iso_A_25": "164",
    "iso_26": "Ho-165",
    "iso_mass_26": "164.93033",
    "decay_type_26": "B-",
    "iso_half_26": "stable",
    "iso_Z_26": "67",
    "iso_N_26": "98",
    "iso_A_26": "165",
    "iso_27": "Ho-166",
    "iso_mass_27": "165.93029",
    "decay_type_27": "B-",
    "iso_half_27": "81.6 h",
    "iso_Z_27": "67",
    "iso_N_27": "99",
    "iso_A_27": "166",
    "iso_28": "Ho-167",
    "iso_mass_28": "166.93160",
    "decay_type_28": "B-",
    "iso_half_28": "4.5 h",
    "iso_Z_28": "67",
    "iso_N_28": "100",
    "iso_A_28": "167",
    "iso_29": "Ho-168",
    "iso_mass_29": "167.93238",
    "decay_type_29": "B-",
    "iso_half_29": "8.7 min",
    "iso_Z_29": "67",
    "iso_N_29": "101",
    "iso_A_29": "168",
    "iso_30": "Ho-169",
    "iso_mass_30": "168.93459",
    "decay_type_30": "B-",
    "iso_half_30": "3.1 min",
    "iso_Z_30": "67",
    "iso_N_30": "102",
    "iso_A_30": "169",
    "iso_31": "Ho-170",
    "iso_mass_31": "169.93577",
    "decay_type_31": "B-",
    "iso_half_31": "1.6 min",
    "iso_Z_31": "67",
    "iso_N_31": "103",
    "iso_A_31": "170",
    "iso_32": "Ho-171",
    "iso_mass_32": "170.93835",
    "decay_type_32": "B-",
    "iso_half_32": "1.1 min",
    "iso_Z_32": "67",
    "iso_N_32": "104",
    "iso_A_32": "171",
    "iso_33": "Ho-172",
    "iso_mass_33": "171.93945",
    "decay_type_33": "B-",
    "iso_half_33": "40 s",
    "iso_Z_33": "67",
    "iso_N_33": "105",
    "iso_A_33": "172",
    "iso_34": "Ho-173",
    "iso_mass_34": "172.94240",
    "decay_type_34": "B-",
    "iso_half_34": "30 s",
    "iso_Z_34": "67",
    "iso_N_34": "106",
    "iso_A_34": "173",
    "iso_35": "Ho-174",
    "iso_mass_35": "173.94423",
    "decay_type_35": "B-",
    "iso_half_35": "20 s",
    "iso_Z_35": "67",
    "iso_N_35": "107",
    "iso_A_35": "174",
    "iso_36": "Ho-175",
    "iso_mass_36": "174.94777",
    "decay_type_36": "B-",
    "iso_half_36": "10 s",
    "iso_Z_36": "67",
    "iso_N_36": "108",
    "iso_A_36": "175",
    "iso_37": "Ho-176",
    "iso_mass_37": "175.94994",
    "decay_type_37": "B-",
    "iso_half_37": "5 s",
    "iso_Z_37": "67",
    "iso_N_37": "109",
    "iso_A_37": "176",
    "crystal_structure": "Hexagonal close-packed (hcp)",
    "lattice_constants": {
      "a": "3.577 Å",
      "c": "5.618 Å"
    },
    "debye_temperature": {
      "low_temperature_limit": "195 K",
      "room_temperature": "175 K"
    }
  }
]