[
  {
"element_code": "AANBVPnjhxFLa5WzFZZ",
    "wikilink": "https://en.wikipedia.org/wiki/Indium",
    "link": "https://upload.wikimedia.org/wikipedia/commons/thumb/b/b8/Indium.jpg/800px-Indium.jpg",
    "description": "Indium is a chemical element with the symbol In and atomic number 49. Indium is the softest metal that is not an alkali metal. It is a silvery-white metal that resembles tin in appearance. It is a post-transition metal that makes up 0.21 parts per million of the Earth's crust. Indium has a melting point higher than sodium and gallium, but lower than lithium and tin. Chemically, indium is similar to gallium and thallium, and it is largely intermediate between the two in terms of its properties. Indium was discovered in 1863 by Ferdinand Reich and Hieronymous Theodor Richter by spectroscopic methods. They named it for the indigo blue line in its spectrum. Indium was isolated the next year.",

    "element": "Indium",
    "short": "In",
    "element_year": "1863",
    "element_discovered_name": "Ferdinand Reich",
    "element_group": "Post-Transition Metals",
    "element_appearance": "Silvery bluish-gray Metallic",
    "element_electrons": "49",
    "element_protons": "49",
    "element_neutron_common": "67",

    "radioactive": "No",
    "neutron_cross_sectional": "194 (b)",

    "electrical_type": "Conductor",
    "resistivity": "8",
    "resistivity_mult": "0.00000001",
    "magnetic_type": "Diamagnetic",
    "superconducting_point": "3.41",

    "element_atomic_number": "49",
    "element_atomicmass": "114.818 (u)",
    "element_density": "7.31 (g/cm^3)",
    "element_electronegativty": "1.78",
    "element_block": "p - block",
    "element_shells_electrons": "K2 L8 18 N18 O3 P0 Q0 R0",
    "element_model": "https://upload.wikimedia.org/wikipedia/commons/thumb/1/18/Electron_shell_049_Indium_-_no_label.svg/800px-Electron_shell_049_Indium_-_no_label.svg.png",

    "element_boiling_kelvin": "2345 (K)",
    "element_boiling_celsius": "2072 (°C)",
    "element_boiling_fahrenheit": "3762 (°F)",
    "element_melting_kelvin": "429.7485 (K)",
    "element_melting_celsius": "156.5985 (°C)",
    "element_melting_fahrenheit": "313.8773 (°F)",

    "element_electron_config": "4d^10 5s^2 5p^1",
    "element_ion_charge": "In^3+",
    "element_ionization_energy1": "5.78636 (eV)",
    "element_ionization_energy2": "18.8698 (eV)",
    "element_ionization_energy3": "28.03 (eV)",
    "element_ionization_energy4": "54 (eV)",
    "element_atomic_radius_e": "155 (pm)",
    "element_atomic_radius": "156 (pm)",
    "element_covalent_radius": "144 (pm)",
    "element_van_der_waals": "193",

    "element_phase": "Solid",
    "element_fusion_heat": "3.281 (kJ/mol)",
    "element_specific_heat_capacity": "0.233 J/(g·K)",
    "element_vaporization_heat": "231.8 (kJ/mol)",

    "mohs_hardness": "1.2",
    "vickers_hardness": "---",
    "brinell_hardness": "8.83-10 (MPa)",

    "oxidation_state_neg": "5 2 1",
    "oxidation_state_pos": "1 2 3",

    "speed_of_sound_gas": "---",
    "speed_of_sound_liquid": "---",
    "speed_of_sound_solid": "1215 (m/s) [20°C]",

    "young_modulus": "11 (GPa)",
    "poisson_ratio": "---",
    "bulk_modulus": "---",
    "shear_modulus": "---",

    "crustal_rocks": "0.2",
    "sun": "1.3",
    "solar_system": "0.19",

      "iso_1": "In-98",
      "iso_mass_1": "97.94214",
      "iso_half_1": "45 (ms)",
      "decay_type_1": "B+",
      "iso_Z_1": "49",
      "iso_N_1": "49",
      "iso_A_1": "98",

      "iso_2": "In-99",
      "iso_mass_2": "98.93422",
      "iso_half_2": "3.1 (s)",
      "decay_type_2": "B+",
      "iso_Z_2": "49",
      "iso_N_2": "50",
      "iso_A_2": "99",

      "iso_3": "In-100",
      "iso_mass_3": "99.93111",
      "iso_half_3": "5.9 (s)",
      "decay_type_3": "B+",
      "iso_Z_3": "49",
      "iso_N_3": "51",
      "iso_A_3": "100",

      "iso_4": "In-101",
      "iso_mass_4": "100.92634",
      "iso_half_4": "15.1 (s)",
      "decay_type_4": "B+",
      "iso_Z_4": "49",
      "iso_N_4": "52",
      "iso_A_4": "101",

      "iso_5": "In-102",
      "iso_mass_5": "101.92409",
      "iso_half_5": "23.3 (s)",
      "decay_type_5": "B+",
      "iso_Z_5": "49",
      "iso_N_5": "53",
      "iso_A_5": "102",

      "iso_6": "In-103",
      "iso_mass_6": "102.919914",
      "iso_half_6": "60 (s)",
      "decay_type_6": "B+",
      "iso_Z_6": "49",
      "iso_N_6": "54",
      "iso_A_6": "103",

      "iso_7": "In-104",
      "iso_mass_7": "103.91830",
      "iso_half_7": "1.80 (min)",
      "decay_type_7": "B+",
      "iso_Z_7": "49",
      "iso_N_7": "55",
      "iso_A_7": "104",

      "iso_8": "In-105",
      "iso_mass_8": "104.914674",
      "iso_half_8": "5.07 (min)",
      "decay_type_8": "B+",
      "iso_Z_8": "49",
      "iso_N_8": "56",
      "iso_A_8": "105",

      "iso_9": "In-106",
      "iso_mass_9": "105.913465",
      "iso_half_9": "6.2 (min)",
      "decay_type_9": "B+",
      "iso_Z_9": "49",
      "iso_N_9": "57",
      "iso_A_9": "107",

      "iso_10": "In-107",
      "iso_mass_10": "106.910295",
      "iso_half_10": "32.4 (min)",
      "decay_type_10": "B+",
      "iso_Z_10": "49",
      "iso_N_10": "58",
      "iso_A_10": "107",

      "iso_11": "In-108",
      "iso_mass_11": "107.909698",
      "iso_half_11": "58.0 (min)",
      "decay_type_11": "B+",
      "iso_Z_11": "49",
      "iso_N_11": "59",
      "iso_A_11": "108",

      "iso_12": "In-109",
      "iso_mass_12": "108.907151",
      "iso_half_12": "4.2 (h)",
      "decay_type_12": "B+",
      "iso_Z_12": "49",
      "iso_N_12": "60",
      "iso_A_12": "109",

      "iso_13": "In-110",
      "iso_mass_13": "109.907165",
      "iso_half_13": "4.9 (h)",
      "decay_type_13": "B+",
      "iso_Z_13": "49",
      "iso_N_13": "61",
      "iso_A_13": "110",

      "iso_14": "In-111",
      "iso_mass_14": "110.905103",
      "iso_half_14": "2.8047 (days)",
      "decay_type_14": "EC",
      "iso_Z_14": "49",
      "iso_N_14": "62",
      "iso_A_14": "111",

    "iso_15": "In-112",
    "iso_mass_15": "111.905532",
    "iso_half_15": "14.97 (min)",
      "decay_type_15": "B+",
      "iso_Z_15": "49",
    "iso_N_15": "63",
    "iso_A_15": "112",

    "iso_16": "In-113",
    "iso_mass_16": "112.904058",
    "iso_half_16": "Stable",
      "decay_type_15": "stable",
      "iso_Z_16": "49",
    "iso_N_16": "64",
    "iso_A_16": "113",

    "iso_17": "In-114",
    "iso_mass_17": "113.904914",
    "iso_half_17": "71.9 (s)",
      "decay_type_17": "B-",
      "iso_Z_17": "49",
    "iso_N_17": "65",
    "iso_A_17": "114",

    "iso_18": "In-115",
    "iso_mass_18": "114.903878",
    "iso_half_18": "4.41×10^14 (years)",
      "decay_type_18": "B-",
      "iso_Z_18": "49",
    "iso_N_18": "66",
    "iso_A_18": "116",

      "iso_19": "In-116",
      "iso_mass_19": "115.905260",
      "iso_half_19": "14.10 (s)",
      "decay_type_19": "B-",
      "iso_Z_19": "49",
      "iso_N_19": "67",
      "iso_A_19": "116",

      "iso_20": "In-117",
      "iso_mass_20": "116.904514",
      "iso_half_20": "42.3 (min)",
      "decay_type_20": "B-",
      "iso_Z_20": "49",
      "iso_N_20": "68",
      "iso_A_20": "117",

      "iso_21": "In-118",
      "iso_mass_21": "117.906354",
      "iso_half_21": "5.0 (s)",
      "decay_type_21": "B-",
      "iso_Z_21": "49",
      "iso_N_21": "69",
      "iso_A_21": "118",

      "iso_22": "In-119",
      "iso_mass_22": "118.905845",
      "iso_half_22": "2.4 (min)",
      "decay_type_22": "B-",
      "iso_Z_22": "49",
      "iso_N_22": "70",
      "iso_A_22": "119",

      "iso_23": "In-120",
      "iso_mass_23": "119.90796",
      "iso_half_23": "3.08 (min)",
      "decay_type_23": "B-",
      "iso_Z_23": "49",
      "iso_N_23": "71",
      "iso_A_23": "120",

    "iso_24": "In-121",
    "iso_mass_24": "120.907846",
    "iso_half_24": "23.1 (s)",
    "decay_type_24": "B-",
    "iso_Z_24": "49",
    "iso_N_24": "72",
    "iso_A_24": "121",

    "iso_25": "In-122",
    "iso_mass_25": "121.91028",
    "iso_half_25": "1.5 (s)",
    "decay_type_25": "B-",
    "iso_Z_25": "49",
    "iso_N_25": "73",
    "iso_A_25": "122",

    "iso_26": "In-123",
    "iso_mass_26": "122.910438",
    "iso_half_26": "6.17 (s)",
    "decay_type_26": "B-",
    "iso_Z_26": "49",
    "iso_N_26": "74",
    "iso_A_26": "123",

    "iso_27": "In-124",
    "iso_mass_27": "123.91318",
    "iso_half_27": "3.11 (s)",
    "decay_type_27": "B-",
    "iso_Z_27": "49",
    "iso_N_27": "75",
    "iso_A_27": "124",

    "iso_28": "In-125",
    "iso_mass_28": "124.91360",
    "iso_half_28": "2.36 (s)",
    "decay_type_28": "B-",
    "iso_Z_28": "49",
    "iso_N_28": "76",
    "iso_A_28": "125",

    "iso_29": "In-126",
    "iso_mass_29": "125.91646",
    "iso_half_29": "1.53 (s)",
    "decay_type_29": "B-",
    "iso_Z_29": "49",
    "iso_N_29": "77",
    "iso_A_29": "126",

    "iso_30": "In-127",
    "iso_mass_30": "126.91735",
    "iso_half_30": "1.09 (s)",
    "decay_type_30": "B-",
    "iso_Z_30": "49",
    "iso_N_30": "78",
    "iso_A_30": "127",

    "iso_31": "In-128",
    "iso_mass_31": "127.92017",
    "iso_half_31": "0.84 (s)",
    "decay_type_31": "B-",
    "iso_Z_31": "49",
    "iso_N_31": "79",
    "iso_A_31": "128",

    "iso_32": "In-129",
    "iso_mass_32": "128.92170",
    "iso_half_32": "611 (ms)",
    "decay_type_32": "B-",
    "iso_Z_32": "49",
    "iso_N_32": "80",
    "iso_A_32": "129",

    "iso_33": "In-130",
    "iso_mass_33": "129.92497",
    "iso_half_33": "290 (ms)",
    "decay_type_33": "B-",
    "iso_Z_33": "49",
    "iso_N_33": "81",
    "iso_A_33": "130",

    "iso_34": "In-131",
    "iso_mass_34": "130.92685",
    "iso_half_34": "280 (ms)",
    "decay_type_34": "B-",
    "iso_Z_34": "49",
    "iso_N_34": "82",
    "iso_A_34": "131",

    "iso_35": "In-132",
    "iso_mass_35": "131.93299",
    "iso_half_35": "206 (ms)",
    "decay_type_35": "B-",
    "iso_Z_35": "49",
    "iso_N_35": "83",
    "iso_A_35": "132",

    "iso_36": "In-133",
    "iso_mass_36": "132.93781",
    "iso_half_36": "165 (ms)",
    "decay_type_36": "B-",
    "iso_Z_36": "49",
    "iso_N_36": "84",
    "iso_A_36": "133",

    "iso_37": "In-134",
    "iso_mass_37": "133.94415",
    "iso_half_37": "140 (ms)",
    "decay_type_37": "B-",
    "iso_Z_37": "49",
    "iso_N_37": "85",
    "iso_A_37": "134",

    "iso_38": "In-135",
    "iso_mass_38": "134.94933",
    "iso_half_38": "02 (ms)",
    "decay_type_38": "B-",
    "iso_Z_38": "49",
    "iso_N_38": "67",
    "iso_A_38": "135"
  }
]