[
  {
"element_code": "AAcELg7gDqRkmv4wJZZ",
    "wikilink": "https://en.wikipedia.org/wiki/Iodine",
    "link": "https://upload.wikimedia.org/wikipedia/commons/thumb/0/0a/Sample_of_iodine.jpg/1920px-Sample_of_iodine.jpg",
    "description": "Iodine is a chemical element with the symbol I and atomic number 53. The heaviest of the stable halogens, it exists as a lustrous, purple-black non-metallic solid at standard conditions that melts to form a deep violet liquid at 114 degrees Celsius, and boils to a violet gas at 184 degrees Celsius. However, it sublimes easily with gentle heat, resulting in a widespread misconception even taught in some science textbooks that it does not melt. The element was discovered by the French chemist Bernard Courtois in 1811, and was named two years later by Joseph Louis Gay-Lussac, after the Greek ἰώδης \"violet-coloured\".",

    "element": "Iodine",
    "short": "I",
    "element_year": "1811",
    "element_discovered_name": "Bernard Courtois",
    "element_group": "Halogens",
    "element_appearance": "Lustrous Metallic Gray",
    "element_electrons": "53",
    "element_protons": "53",
    "element_neutron_common": "74",

    "radioactive": "No",
    "neutron_cross_sectional": "6.2 (b)",

    "electrical_type": "Insulator",
    "resistivity": "1",
    "resistivity_mult": "10000000",
    "magnetic_type": "Diamagnetic",
    "superconducting_point": "---",

    "element_atomic_number": "53",
    "element_atomicmass": "126.9045 (u)",
    "element_density": "4.933 (g/cm^3)",
    "element_electronegativty": "2.66",
    "element_block": "p - block",
    "element_shells_electrons": "K2 L8 18 N18 O7 P0 Q0 R0",
    "element_model": "https://upload.wikimedia.org/wikipedia/commons/thumb/5/5e/Electron_shell_053_Iodine_%28diatomic_nonmetal%29_-_no_label.svg/1280px-Electron_shell_053_Iodine_%28diatomic_nonmetal%29_-_no_label.svg.png",

    "element_boiling_kelvin": "457.4 (K)",
    "element_boiling_celsius": "184.3 (°C)",
    "element_boiling_fahrenheit": "363.7 (°F)",
    "element_melting_kelvin": "386.85 (K)",
    "element_melting_celsius": "113.7 (°C)",
    "element_melting_fahrenheit": "236.66 (°F)",

    "element_electron_config": "4d^10 5s^2 5p^5",
    "element_ion_charge": "I^-",
    "element_ionization_energy1": "10.45126 (eV)",
    "element_ionization_energy2": "19.1313 (eV)",
    "element_ionization_energy3": "33 (eV)",
    "element_atomic_radius_e": "140 (pm)",
    "element_atomic_radius": "115 (pm)",
    "element_covalent_radius": "133 (pm)",
    "element_van_der_waals": "198",

    "element_phase": "Solid",
    "element_fusion_heat": "15.52 (I2) (kJ/mol)",
    "element_specific_heat_capacity": "0.214 (I2) J/(g·K)",
    "element_vaporization_heat": "41.57 (I2) (kJ/mol)",

    "oxidation_state_neg": "1",
    "oxidation_state_pos": "1 3 4 5 6 7",

      "iso_1": "108-I",
      "iso_mass_1": "107.943",
      "decay_type_1": "B+",
      "iso_half_1": "6.3 seconds",
      "iso_Z_1": "53",
      "iso_N_1": "55",
      "iso_A_1": "108",

      "iso_2": "109-I",
      "iso_mass_2": "108.938",
      "decay_type_2": "B+",
      "iso_half_2": "13.7 seconds",
      "iso_Z_2": "53",
      "iso_N_2": "56",
      "iso_A_2": "109",

      "iso_3": "110-I",
      "iso_mass_3": "109.935",
      "decay_type_3": "B+",
      "iso_half_3": "0.86 seconds",
      "iso_Z_3": "53",
      "iso_N_3": "57",
      "iso_A_3": "110",

      "iso_4": "111-I",
      "iso_mass_4": "110.930",
      "decay_type_4": "B+",
      "iso_half_4": "2.3 seconds",
      "iso_Z_4": "53",
      "iso_N_4": "58",
      "iso_A_4": "111",

      "iso_5": "112-I",
      "iso_mass_5": "111.928",
      "decay_type_5": "B+",
      "iso_half_5": "3.42 seconds",
      "iso_Z_5": "53",
      "iso_N_5": "59",
      "iso_A_5": "112",

      "iso_6": "113-I",
      "iso_mass_6": "112.923",
      "decay_type_6": "B+",
      "iso_half_6": "6.7 seconds",
      "iso_Z_6": "53",
      "iso_N_6": "60",
      "iso_A_6": "113",

      "iso_7": "114-I",
      "iso_mass_7": "113.921",
      "decay_type_7": "B+",
      "iso_half_7": "2.1 minutes",
      "iso_Z_7": "53",
      "iso_N_7": "61",
      "iso_A_7": "114",

      "iso_8": "115-I",
      "iso_mass_8": "114.918",
      "decay_type_8": "B+",
      "iso_half_8": "1.2 minutes",
      "iso_Z_8": "53",
      "iso_N_8": "62",
      "iso_A_8": "115",

      "iso_9": "116-I",
      "iso_mass_9": "115.916",
      "decay_type_9": "B+",
      "iso_half_9": "2.91 minutes",
      "iso_Z_9": "53",
      "iso_N_9": "63",
      "iso_A_9": "116",

      "iso_10": "117-I",
      "iso_mass_10": "116.913",
      "decay_type_10": "B+",
      "iso_half_10": "2.05 minutes",
      "iso_Z_10": "53",
      "iso_N_10": "64",
      "iso_A_10": "117",

      "iso_11": "118-I",
      "iso_mass_11": "117.913",
      "decay_type_11": "B+",
      "iso_half_11": "13.7 minutes",
      "iso_Z_11": "53",
      "iso_N_11": "65",
      "iso_A_11": "118",

      "iso_12": "119-I",
      "iso_mass_12": "118.910",
      "decay_type_12": "B+",
      "iso_half_12": "19.1 minutes",
      "iso_Z_12": "53",
      "iso_N_12": "66",
      "iso_A_12": "119",

      "iso_13": "120-I",
      "iso_mass_13": "119.910",
      "decay_type_13": "B+",
      "iso_half_13": "81.6 minutes",
      "iso_Z_13": "53",
      "iso_N_13": "67",
      "iso_A_13": "120",

      "iso_14": "121-I",
      "iso_mass_14": "120.907",
      "decay_type_14": "B+",
      "iso_half_14": "2.12 hours",
      "iso_Z_14": "53",
      "iso_N_14": "68",
      "iso_A_14": "121",

      "iso_15": "122-I",
      "iso_mass_15": "121.907",
      "decay_type_15": "B+",
      "iso_half_15": "3.63 minutes",
      "iso_Z_15": "53",
      "iso_N_15": "69",
      "iso_A_15": "122",

      "iso_16": "123-I",
      "iso_mass_16": "122.905",
      "decay_type_16": "B+",
      "iso_half_16": "13.2 hours",
      "iso_Z_16": "53",
      "iso_N_16": "70",
      "iso_A_16": "123",

      "iso_17": "124-I",
      "iso_mass_17": "123.906",
      "decay_type_17": "B+",
      "iso_half_17": "4.18 days",
      "iso_Z_17": "53",
      "iso_N_17": "71",
      "iso_A_17": "124",

      "iso_18": "125-I",
      "iso_mass_18": "124.904",
      "decay_type_18": "EC",
      "iso_half_18": "59.4 days",
      "iso_Z_18": "53",
      "iso_N_18": "72",
      "iso_A_18": "125",

      "iso_19": "126-I",
      "iso_mass_19": "125.905",
      "decay_type_19": "B+",
      "iso_half_19": "13.1 days",
      "iso_Z_19": "53",
      "iso_N_19": "73",
      "iso_A_19": "126",

      "iso_20": "127-I",
      "iso_mass_20": "126.904",
      "decay_type_20": "stable",
      "iso_half_20": "stable",
      "iso_Z_20": "53",
      "iso_N_20": "74",
      "iso_A_20": "127",

      "iso_21": "128-I",
      "iso_mass_21": "127.905",
      "decay_type_21": "B-",
      "iso_half_21": "25 minutes",
      "iso_Z_21": "53",
      "iso_N_21": "75",
      "iso_A_21": "128",

      "iso_22": "129-I",
      "iso_mass_22": "128.905",
      "decay_type_22": "B-",
      "iso_half_22": "15.7 million years",
      "iso_Z_22": "53",
      "iso_N_22": "76",
      "iso_A_22": "129",

      "iso_23": "130-I",
      "iso_mass_23": "129.906",
      "decay_type_23": "B-",
      "iso_half_23": "12.36 hours",
      "iso_Z_23": "53",
      "iso_N_23": "77",
      "iso_A_23": "130",

      "iso_24": "131-I",
      "iso_mass_24": "130.906",
      "decay_type_24": "B-",
      "iso_half_24": "8.02 days",
      "iso_Z_24": "53",
      "iso_N_24": "78",
      "iso_A_24": "131",

      "iso_25": "132-I",
      "iso_mass_25": "131.907",
      "decay_type_25": "B-",
      "iso_half_25": "2.3 hours",
      "iso_Z_25": "53",
      "iso_N_25": "79",
      "iso_A_25": "132",

      "iso_26": "133-I",
      "iso_mass_26": "132.907",
      "decay_type_26": "B-",
      "iso_half_26": "20.8 hours",
      "iso_Z_26": "53",
      "iso_N_26": "80",
      "iso_A_26": "133",

      "iso_27": "134-I",
      "iso_mass_27": "133.909",
      "decay_type_27": "B-",
      "iso_half_27": "52.5 minutes",
      "iso_Z_27": "53",
      "iso_N_27": "81",
      "iso_A_27": "134",

      "iso_28": "135-I",
      "iso_mass_28": "134.910",
      "decay_type_28": "B-",
      "iso_half_28": "6.57 hours",
      "iso_Z_28": "53",
      "iso_N_28": "82",
      "iso_A_28": "135",

      "iso_29": "136-I",
      "iso_mass_29": "135.910",
      "decay_type_29": "B-",
      "iso_half_29": "83.4 seconds",
      "iso_Z_29": "53",
      "iso_N_29": "83",
      "iso_A_29": "136",

      "iso_30": "137-I",
      "iso_mass_30": "136.912",
      "decay_type_30": "B-",
      "iso_half_30": "24.13 seconds",
      "iso_Z_30": "53",
      "iso_N_30": "84",
      "iso_A_30": "137",

      "iso_31": "138-I",
      "iso_mass_31": "137.913",
      "decay_type_31": "B-",
      "iso_half_31": "6.23 seconds",
      "iso_Z_31": "53",
      "iso_N_31": "85",
      "iso_A_31": "138",

      "iso_32": "139-I",
      "iso_mass_32": "138.916",
      "decay_type_32": "B-",
      "iso_half_32": "2.28 seconds",
      "iso_Z_32": "53",
      "iso_N_32": "86",
      "iso_A_32": "139",

      "iso_33": "140-I",
      "iso_mass_33": "139.917",
      "decay_type_33": "B-",
      "iso_half_33": "0.86 seconds",
      "iso_Z_33": "53",
      "iso_N_33": "87",
      "iso_A_33": "140",

      "iso_34": "141-I",
      "iso_mass_34": "140.920",
      "decay_type_34": "B-",
      "iso_half_34": "0.50 seconds",
      "iso_Z_34": "53",
      "iso_N_34": "88",
      "iso_A_34": "141",

      "iso_35": "142-I",
      "iso_mass_35": "141.922",
      "decay_type_35": "B-",
      "iso_half_35": "0.24 seconds",
      "iso_Z_35": "53",
      "iso_N_35": "89",
      "iso_A_35": "142",

      "iso_36": "143-I",
      "iso_mass_36": "142.925",
      "decay_type_36": "B-",
      "iso_half_36": "0.13 seconds",
      "iso_Z_36": "53",
      "iso_N_36": "90",
      "iso_A_36": "143",

      "iso_37": "144-I",
      "iso_mass_37": "143.928",
      "decay_type_37": "B-",
      "iso_half_37": "0.09 seconds",
      "iso_Z_37": "53",
      "iso_N_37": "91",
      "iso_A_37": "144"
  }
]