[
  {
"element_code": "AATGC4aGnW59u9pLkZZ",
    "wikilink": "https://en.wikipedia.org/wiki/Iridium",
    "link": "https://upload.wikimedia.org/wikipedia/commons/a/a8/Iridium-2.jpg",
    "description": "Iridium is a chemical element with the symbol Ir and atomic number 77. A very hard, brittle, silvery-white transition metal of the platinum group, iridium is considered to be the second-densest metal (after osmium) with a density of 22.56 g/cm3 as defined by experimental X-ray crystallography. However, at room temperature and standard atmospheric pressure, iridium has been calculated to have a density of 22.65 g/cm3, 0.04 g/cm3 higher than osmium measured the same way. Still, the experimental X-ray crystallography value is considered to be the most accurate, as such iridium is considered to be the second densest element. It is the most corrosion-resistant metal, even at temperatures as high as 2000°C. Although only certain molten salts and halogens are corrosive to solid iridium, finely divided iridium dust is much more reactive and can be flammable.",

    "element": "Iridium",
    "short": "Ir",
    "element_year": "1803",
    "element_discovered_name": "Smithson Tennant",
    "element_group": "Transition Metals",
    "element_appearance": "Silvery white",
    "element_electrons": "77",
    "element_protons": "77",
    "element_neutron_common": "116",

    "radioactive": "No",
    "neutron_cross_sectional": "425 (b)",

    "electrical_type": "Conductor",
    "resistivity": "4.7",
    "resistivity_mult": "0.00000001",
    "magnetic_type": "Paramagnetic",
    "superconducting_point": "0.11",

    "element_atomic_number": "77",
    "element_atomicmass": "192.217 (u)",
    "element_density": "22.56 (g/cm^3)",
    "element_electronegativty": "2.2",
    "element_block": "d - block",
    "element_shells_electrons": "K2 L8 M8 N32 O15 P2 Q0 R0",
    "element_model": "https://upload.wikimedia.org/wikipedia/commons/thumb/5/5c/Electron_shell_077_Iridium_-_no_label.svg/800px-Electron_shell_077_Iridium_-_no_label.svg.png",

    "element_boiling_kelvin": "4403 (K)",
    "element_boiling_celsius": "4130 (°C)",
    "element_boiling_fahrenheit": "7466 (°F)",
    "element_melting_kelvin": "2719 (K)",
    "element_melting_celsius": "2446 (°C)",
    "element_melting_fahrenheit": "4435 (°F)",

    "element_electron_config": "4f^14, 5d^7, 6s^2",
    "element_ion_charge": "Ir^4+",
    "element_ionization_energy1": "8.9670 (eV)",
    "element_atomic_radius_e": "135 (pm)",
    "element_atomic_radius": "180 (pm)",
    "element_covalent_radius": "137 (pm)",
    "element_van_der_waals": "--- (pm)",

    "element_phase": "Solid",
    "element_fusion_heat": "41.12 (kJ/mol)",
    "element_specific_heat_capacity": "0.131 J/(g·K)",
    "element_vaporization_heat": "564 (kJ/mol)",

    "oxidation_state_neg": "3 1 0",
    "oxidation_state_pos": "1 2 3 4 5 6 7 8 9",

    "speed_of_sound_gas": "---",
    "speed_of_sound_liquid": "---",
    "speed_of_sound_solid": "4825 (m/s) [20°C]",

    "mohs_hardness": "6.5",
    "vickers_hardness": "1760-2200 (MPa)",
    "brinell_hardness": "1670 (MPa)",

    "young_modulus": "528 (GPa)",
    "poisson_ratio": "0.26",
    "bulk_modulus": "320 (GPa)",
    "shear_modulus": "210 (GPa)",

    "sea_water": null,
    "crustal_rocks": "0.0002",
    "sun": "0.6",
    "solar_system": "0.66",

      "iso_1": "Ir-164",
      "iso_mass_1": "163.99220",
      "decay_type_1": "p",
      "iso_half_1": "<0.5 μs",
      "iso_Z_1": "77",
      "iso_N_1": "87",
      "iso_A_1": "164",

      "iso_2": "Ir-165",
      "iso_mass_2": "164.98752",
      "decay_type_2": "p",
      "iso_half_2": "1.20 μs",
      "iso_Z_2": "77",
      "iso_N_2": "88",
      "iso_A_2": "165",

      "iso_3": "Ir-166",
      "iso_mass_3": "165.98582",
      "decay_type_3": "α",
      "iso_half_3": "10.5 ms",
      "iso_Z_3": "77",
      "iso_N_3": "89",
      "iso_A_3": "166",

      "iso_4": "Ir-167",
      "iso_mass_4": "166.98167",
      "decay_type_4": "α",
      "iso_half_4": "35.2 ms",
      "iso_Z_4": "77",
      "iso_N_4": "90",
      "iso_A_4": "167",

      "iso_5": "Ir-168",
      "iso_mass_5": "167.97988",
      "decay_type_5": "α",
      "iso_half_5": "161 ms",
      "iso_Z_5": "77",
      "iso_N_5": "91",
      "iso_A_5": "168",

      "iso_6": "Ir-169",
      "iso_mass_6": "168.97630",
      "decay_type_6": "α",
      "iso_half_6": "780 ms",
      "iso_Z_6": "77",
      "iso_N_6": "92",
      "iso_A_6": "169",

      "iso_7": "Ir-170",
      "iso_mass_7": "169.97497",
      "decay_type_7": "B+",
      "iso_half_7": "910 ms",
      "iso_Z_7": "77",
      "iso_N_7": "93",
      "iso_A_7": "170",

      "iso_8": "Ir-171",
      "iso_mass_8": "170.97163",
      "decay_type_8": "α",
      "iso_half_8": "3.6 s",
      "iso_Z_8": "77",
      "iso_N_8": "94",
      "iso_A_8": "171",

      "iso_9": "Ir-172",
      "iso_mass_9": "171.97061",
      "decay_type_9": "B+",
      "iso_half_9": "4.4 s",
      "iso_Z_9": "77",
      "iso_N_9": "95",
      "iso_A_9": "172",

      "iso_10": "Ir-173",
      "iso_mass_10": "172.96750",
      "decay_type_10": "B+",
      "iso_half_10": "9.0 s",
      "iso_Z_10": "77",
      "iso_N_10": "96",
      "iso_A_10": "173",

      "iso_11": "Ir-174",
      "iso_mass_11": "173.96686",
      "decay_type_11": "B+",
      "iso_half_11": "7.9 s",
      "iso_Z_11": "77",
      "iso_N_11": "97",
      "iso_A_11": "174",

      "iso_12": "Ir-175",
      "iso_mass_12": "174.96411",
      "decay_type_12": "B+",
      "iso_half_12": "9 s",
      "iso_Z_12": "77",
      "iso_N_12": "98",
      "iso_A_12": "175",

      "iso_13": "Ir-176",
      "iso_mass_13": "175.96365",
      "decay_type_13": "B+",
      "iso_half_13": "8.3 s",
      "iso_Z_13": "77",
      "iso_N_13": "99",
      "iso_A_13": "176",

      "iso_14": "Ir-177",
      "iso_mass_14": "176.96130",
      "decay_type_14": "B+",
      "iso_half_14": "30 s",
      "iso_Z_14": "77",
      "iso_N_14": "100",
      "iso_A_14": "177",

      "iso_15": "Ir-178",
      "iso_mass_15": "177.96108",
      "decay_type_15": "B+",
      "iso_half_15": "12 s",
      "iso_Z_15": "77",
      "iso_N_15": "101",
      "iso_A_15": "178",

      "iso_16": "Ir-179",
      "iso_mass_16": "178.95912",
      "decay_type_16": "B+",
      "iso_half_16": "79 s",
      "iso_Z_16": "77",
      "iso_N_16": "102",
      "iso_A_16": "179",

      "iso_17": "Ir-180",
      "iso_mass_17": "179.95923",
      "decay_type_17": "B+",
      "iso_half_17": "1.5 min",
      "iso_Z_17": "77",
      "iso_N_17": "103",
      "iso_A_17": "180",

      "iso_18": "Ir-181",
      "iso_mass_18": "180.95763",
      "decay_type_18": "B+",
      "iso_half_18": "4.9 min",
      "iso_Z_18": "77",
      "iso_N_18": "104",
      "iso_A_18": "181",

      "iso_19": "Ir-182",
      "iso_mass_19": "181.95808",
      "decay_type_19": "B+",
      "iso_half_19": "15 min",
      "iso_Z_19": "77",
      "iso_N_19": "105",
      "iso_A_19": "182",

      "iso_20": "Ir-183",
      "iso_mass_20": "182.95685",
      "decay_type_20": "B+",
      "iso_half_20": "57 min",
      "iso_Z_20": "77",
      "iso_N_20": "106",
      "iso_A_20": "183",

      "iso_21": "Ir-184",
      "iso_mass_21": "183.95748",
      "decay_type_21": "B+",
      "iso_half_21": "3.09 h",
      "iso_Z_21": "77",
      "iso_N_21": "107",
      "iso_A_21": "184",

      "iso_22": "Ir-185",
      "iso_mass_22": "184.95670",
      "decay_type_22": "B+",
      "iso_half_22": "14.4 h",
      "iso_Z_22": "77",
      "iso_N_22": "108",
      "iso_A_22": "185",

      "iso_23": "Ir-186",
      "iso_mass_23": "185.95794",
      "decay_type_23": "B+",
      "iso_half_23": "16.64 h",
      "iso_Z_23": "77",
      "iso_N_23": "109",
      "iso_A_23": "186",

      "iso_24": "Ir-187",
      "iso_mass_24": "186.95754",
      "decay_type_24": "B+",
      "iso_half_24": "10.5 h",
      "iso_Z_24": "77",
      "iso_N_24": "110",
      "iso_A_24": "187",

      "iso_25": "Ir-188",
      "iso_mass_25": "187.95883",
      "decay_type_25": "B+",
      "iso_half_25": "41.5 h",
      "iso_Z_25": "77",
      "iso_N_25": "111",
      "iso_A_25": "188",

      "iso_26": "Ir-189",
      "iso_mass_26": "188.95871",
      "decay_type_26": "B+",
      "iso_half_26": "13.2 d",
      "iso_Z_26": "77",
      "iso_N_26": "112",
      "iso_A_26": "189",

      "iso_27": "Ir-190",
      "iso_mass_27": "189.95993",
      "decay_type_27": "B+",
      "iso_half_27": "11.78 d",
      "iso_Z_27": "77",
      "iso_N_27": "113",
      "iso_A_27": "190",

      "iso_28": "Ir-191",
      "iso_mass_28": "190.96059",
      "decay_type_28": "B+",
      "iso_half_28": "4.94 d",
      "iso_Z_28": "77",
      "iso_N_28": "114",
      "iso_A_28": "191",

      "iso_29": "Ir-192",
      "iso_mass_29": "191.96103",
      "decay_type_29": "B-",
      "iso_half_29": "73.83 d",
      "iso_Z_29": "77",
      "iso_N_29": "115",
      "iso_A_29": "192",

      "iso_30": "Ir-193",
      "iso_mass_30": "192.96292",
      "decay_type_30": "B-",
      "iso_half_30": "10.53 d",
      "iso_Z_30": "77",
      "iso_N_30": "116",
      "iso_A_30": "193",

      "iso_31": "Ir-194",
      "iso_mass_31": "193.96357",
      "decay_type_31": "B-",
      "iso_half_31": "19.28 h",
      "iso_Z_31": "77",
      "iso_N_31": "117",
      "iso_A_31": "194",

      "iso_32": "Ir-195",
      "iso_mass_32": "194.96593",
      "decay_type_32": "B-",
      "iso_half_32": "2.5 h",
      "iso_Z_32": "77",
      "iso_N_32": "118",
      "iso_A_32": "195",

      "iso_33": "Ir-196",
      "iso_mass_33": "195.96734",
      "decay_type_33": "B-",
      "iso_half_33": "52 s",
      "iso_Z_33": "77",
      "iso_N_33": "119",
      "iso_A_33": "196",

      "iso_34": "Ir-197",
      "iso_mass_34": "196.96965",
      "decay_type_34": "B-",
      "iso_half_34": "5 s",
      "iso_Z_34": "77",
      "iso_N_34": "120",
      "iso_A_34": "197",

      "iso_35": "Ir-198",
      "iso_mass_35": "197.97134",
      "decay_type_35": "B-",
      "iso_half_35": "8 s",
      "iso_Z_35": "77",
      "iso_N_35": "121",
      "iso_A_35": "198",

      "iso_36": "Ir-199",
      "iso_mass_36": "198.97380",
      "decay_type_36": "B-",
      "iso_half_36": "1.5 s",
      "iso_Z_36": "77",
      "iso_N_36": "122",
      "iso_A_36": "199",

      "iso_37": "Ir-200",
      "iso_mass_37": "199.97580",
      "decay_type_37": "B-",
      "iso_half_37": "1 s",
      "iso_Z_37": "77",
      "iso_N_37": "123",
      "iso_A_37": "200",

      "iso_38": "Ir-201",
      "iso_mass_38": "200.97870",
      "decay_type_38": "B-",
      "iso_half_38": "0.5 s",
      "iso_Z_38": "77",
      "iso_N_38": "124",
      "iso_A_38": "201",

      "iso_39": "Ir-202",
      "iso_mass_39": "201.98199",
      "decay_type_39": "B-",
      "iso_half_39": "0.3 s",
      "iso_Z_39": "77",
      "iso_N_39": "125",
      "iso_A_39": "202",

      "iso_40": "Ir-203",
      "iso_mass_40": "202.98580",
      "decay_type_40": "B-",
      "iso_half_40": "0.2 s",
      "iso_Z_40": "77",
      "iso_N_40": "126",
      "iso_A_40": "203"
  }
]