[
  {
"element_code": "AAg5LfCUgLq2uJJ6xZZ",
    "wikilink": "https://en.wikipedia.org/wiki/Lanthanum",
    "link": "https://upload.wikimedia.org/wikipedia/commons/8/8c/Lanthanum-2.jpg",
    "description": "Lanthanum is a chemical element with the symbol La and atomic number 57. It is a soft, ductile, silvery-white metal that tarnishes slowly when exposed to air and is soft enough to be cut with a knife. It is the eponym of the lanthanide series, a group of 15 similar elements between lanthanum and lutetium in the periodic table, of which lanthanum is the first and the prototype. It is also sometimes considered the first element of the 6th-period transition metals, which would put it in group 3, although lutetium is sometimes placed in this position instead. Lanthanum is traditionally counted among the rare earth elements. The usual oxidation state is +3. Lanthanum has no biological role in humans but is essential to some bacteria. It is not particularly toxic to humans but does show some antimicrobial activity.",

    "element": "Lanthanum",
    "short": "La",
    "element_year": "1838",
    "element_discovered_name": "Carl Gustaf Mosander",
    "element_group": "Lanthanoids",
    "element_appearance": "Silvery White",
    "element_electrons": "57",
    "element_protons": "57",
    "element_neutron_common": "82",

    "radioactive": "No",
    "neutron_cross_sectional": "8.98 (b)",

    "electrical_type": "Conductor",
    "resistivity": "615 nΩmc",
    "resistivity_mult": "0.0000001",
    "magnetic_type": "Paramagnetic",
    "superconducting_point": "4.88",

    "element_atomic_number": "57",
    "element_atomicmass": "138.905 (u)",
    "element_density": "6.15 (g/cm^3)",
    "element_electronegativty": "1.10",
    "element_block": "d - block",
    "element_shells_electrons": "K2 L8 18 N18 O9 P2 Q0 R0",
    "element_model": "https://upload.wikimedia.org/wikipedia/commons/thumb/1/14/Electron_shell_057_Lanthanum_-_no_label.svg/1280px-Electron_shell_057_Lanthanum_-_no_label.svg.png",

    "element_boiling_kelvin": "1193 (K)",
    "element_boiling_celsius": "920 (°C)",
    "element_boiling_fahrenheit": "1688 (°F)",
    "element_melting_kelvin": "3737 (K)",
    "element_melting_celsius": "3464 (°C)",
    "element_melting_fahrenheit": "6267 (°F)",

    "element_electron_config": "5d^1 6s^2",
    "element_ion_charge": "La^3+",
    "element_ionization_energy1": "5.5769 (eV)",
    "element_ionization_energy2": "11.060 (eV)",
    "element_ionization_energy3": "19.1773 (eV)",
    "element_ionization_energy4": "49.95 (eV)",
    "element_ionization_energy5": "61.6 (eV)",
    "element_atomic_radius_e": "195 (pm)",
    "element_atomic_radius": "195 (pm)",
    "element_covalent_radius": "169 (pm)",
    "element_van_der_waals": "---",

    "element_phase": "Solid",
    "element_fusion_heat": "6.20 (kJ/mol)",
    "element_specific_heat_capacity": "0.195 J/(g·K)",

    "oxidation_state_neg": "0",
    "oxidation_state_pos": "1 2 3",
    "element_vaporization_heat": "400 (kJ/mol)",

    "speed_of_sound_gas": "---",
    "speed_of_sound_liquid": "---",
    "speed_of_sound_solid": "2475 (m/s) [20°C]",

    "mohs_hardness": "2.5",
    "vickers_hardness": "360-1750 (MPa)",
    "brinell_hardness": "350-400 (MPa)",

    "young_modulus": "36.6 (GPa) [α-form]",
    "poisson_ratio": "0.280 [α-form]",
    "bulk_modulus": "27.9 (GPa) [α-form]",
    "shear_modulus": "14.3 (GPa) [α-form]",

    "earth_crust": "29.0",
    "earth_soils": "40.0",
    "urban_soils": "34.0",
    "sea_water": "0.0034",
    "crustal_rocks": "50",
    "sun": "0.5",
    "solar_system": "0.44",

    "cas_number": "7439-91-0",
    "eg_number": "231-099-0",

      "iso_1": "La-117",
      "iso_mass_1": "116.950",
      "decay_type_1": "B+",
      "iso_half_1": "22 milliseconds",
      "iso_Z_1": "57",
      "iso_N_1": "60",
      "iso_A_1": "117",

      "iso_2": "La-118",
      "iso_mass_2": "117.946",
      "decay_type_2": "B+",
      "iso_half_2": "30 milliseconds",
      "iso_Z_2": "57",
      "iso_N_2": "61",
      "iso_A_2": "118",

      "iso_3": "La-119",
      "iso_mass_3": "118.940",
      "decay_type_3": "B+",
      "iso_half_3": "60 milliseconds",
      "iso_Z_3": "57",
      "iso_N_3": "62",
      "iso_A_3": "119",

      "iso_4": "La-120",
      "iso_mass_4": "119.937",
      "decay_type_4": "B+",
      "iso_half_4": "100 milliseconds",
      "iso_Z_4": "57",
      "iso_N_4": "63",
      "iso_A_4": "120",

      "iso_5": "La-121",
      "iso_mass_5": "120.933",
      "decay_type_5": "B+",
      "iso_half_5": "200 milliseconds",
      "iso_Z_5": "57",
      "iso_N_5": "64",
      "iso_A_5": "121",

      "iso_6": "La-122",
      "iso_mass_6": "121.930",
      "decay_type_6": "B+",
      "iso_half_6": "300 milliseconds",
      "iso_Z_6": "57",
      "iso_N_6": "65",
      "iso_A_6": "122",

      "iso_7": "La-123",
      "iso_mass_7": "122.926",
      "decay_type_7": "B+",
      "iso_half_7": "400 milliseconds",
      "iso_Z_7": "57",
      "iso_N_7": "66",
      "iso_A_7": "123",

      "iso_8": "La-124",
      "iso_mass_8": "123.923",
      "decay_type_8": "B+",
      "iso_half_8": "500 milliseconds",
      "iso_Z_8": "57",
      "iso_N_8": "67",
      "iso_A_8": "124",

      "iso_9": "La-125",
      "iso_mass_9": "124.919",
      "decay_type_9": "B+",
      "iso_half_9": "600 milliseconds",
      "iso_Z_9": "57",
      "iso_N_9": "68",
      "iso_A_9": "125",

      "iso_10": "La-126",
      "iso_mass_10": "125.916",
      "decay_type_10": "B+",
      "iso_half_10": "700 milliseconds",
      "iso_Z_10": "57",
      "iso_N_10": "69",
      "iso_A_10": "126",

      "iso_11": "La-127",
      "iso_mass_11": "126.912",
      "decay_type_11": "B+",
      "iso_half_11": "800 milliseconds",
      "iso_Z_11": "57",
      "iso_N_11": "70",
      "iso_A_11": "127",

      "iso_12": "La-128",
      "iso_mass_12": "127.909",
      "decay_type_12": "B+",
      "iso_half_12": "900 milliseconds",
      "iso_Z_12": "57",
      "iso_N_12": "71",
      "iso_A_12": "128",

      "iso_13": "La-129",
      "iso_mass_13": "128.906",
      "decay_type_13": "B+",
      "iso_half_13": "1 second",
      "iso_Z_13": "57",
      "iso_N_13": "72",
      "iso_A_13": "129",

      "iso_14": "La-130",
      "iso_mass_14": "129.903",
      "decay_type_14": "B+",
      "iso_half_14": "1.1 seconds",
      "iso_Z_14": "57",
      "iso_N_14": "73",
      "iso_A_14": "130",

      "iso_15": "La-131",
      "iso_mass_15": "130.900",
      "decay_type_15": "B+",
      "iso_half_15": "1.2 seconds",
      "iso_Z_15": "57",
      "iso_N_15": "74",
      "iso_A_15": "131",

      "iso_16": "La-132",
      "iso_mass_16": "131.897",
      "decay_type_16": "B+",
      "iso_half_16": "1.3 seconds",
      "iso_Z_16": "57",
      "iso_N_16": "75",
      "iso_A_16": "132",

      "iso_17": "La-133",
      "iso_mass_17": "132.894",
      "decay_type_17": "B+",
      "iso_half_17": "1.4 seconds",
      "iso_Z_17": "57",
      "iso_N_17": "76",
      "iso_A_17": "133",

      "iso_18": "La-134",
      "iso_mass_18": "133.891",
      "decay_type_18": "B+",
      "iso_half_18": "1.5 seconds",
      "iso_Z_18": "57",
      "iso_N_18": "77",
      "iso_A_18": "134",

      "iso_19": "La-135",
      "iso_mass_19": "134.888",
      "decay_type_19": "B+",
      "iso_half_19": "1.6 seconds",
      "iso_Z_19": "57",
      "iso_N_19": "78",
      "iso_A_19": "135",

      "iso_20": "La-136",
      "iso_mass_20": "135.885",
      "decay_type_20": "B+",
      "iso_half_20": "1.7 seconds",
      "iso_Z_20": "57",
      "iso_N_20": "79",
      "iso_A_20": "136",

      "iso_21": "La-137",
      "iso_mass_21": "136.882",
      "decay_type_21": "B+",
      "iso_half_21": "1.8 seconds",
      "iso_Z_21": "57",
      "iso_N_21": "80",
      "iso_A_21": "137",

      "iso_22": "La-138",
      "iso_mass_22": "137.907",
      "decay_type_22": "B-",
      "iso_half_22": "1.02×10^11 years",
      "iso_Z_22": "57",
      "iso_N_22": "81",
      "iso_A_22": "138",

      "iso_23": "La-139",
      "iso_mass_23": "138.906",
      "decay_type_23": "stable",
      "iso_half_23": "stable",
      "iso_Z_23": "57",
      "iso_N_23": "82",
      "iso_A_23": "139",

      "iso_24": "La-140",
      "iso_mass_24": "139.909",
      "decay_type_24": "B-",
      "iso_half_24": "1.6781 days",
      "iso_Z_24": "57",
      "iso_N_24": "83",
      "iso_A_24": "140",

      "iso_25": "La-141",
      "iso_mass_25": "140.912",
      "decay_type_25": "B-",
      "iso_half_25": "3.92 hours",
      "iso_Z_25": "57",
      "iso_N_25": "84",
      "iso_A_25": "141",

      "iso_26": "La-142",
      "iso_mass_26": "141.915",
      "decay_type_26": "B-",
      "iso_half_26": "91 minutes",
      "iso_Z_26": "57",
      "iso_N_26": "85",
      "iso_A_26": "142",

      "iso_27": "La-143",
      "iso_mass_27": "142.912",
      "decay_type_27": "B-",
      "iso_half_27": "14.2 minutes",
      "iso_Z_27": "57",
      "iso_N_27": "86",
      "iso_A_27": "143",

      "iso_28": "La-144",
      "iso_mass_28": "143.911",
      "decay_type_28": "B-",
      "iso_half_28": "40.8 seconds",
      "iso_Z_28": "57",
      "iso_N_28": "87",
      "iso_A_28": "144",

      "iso_29": "La-145",
      "iso_mass_29": "144.912",
      "decay_type_29": "B-",
      "iso_half_29": "24.8 seconds",
      "iso_Z_29": "57",
      "iso_N_29": "88",
      "iso_A_29": "145",

      "iso_30": "La-146",
      "iso_mass_30": "145.912",
      "decay_type_30": "B-",
      "iso_half_30": "9.6 seconds",
      "iso_Z_30": "57",
      "iso_N_30": "89",
      "iso_A_30": "146",

      "iso_31": "La-147",
      "iso_mass_31": "146.914",
      "decay_type_31": "B-",
      "iso_half_31": "4.2 seconds",
      "iso_Z_31": "57",
      "iso_N_31": "90",
      "iso_A_31": "147",

      "iso_32": "La-148",
      "iso_mass_32": "147.915",
      "decay_type_32": "B-",
      "iso_half_32": "1.3 seconds",
      "iso_Z_32": "57",
      "iso_N_32": "91",
      "iso_A_32": "148",

      "iso_33": "La-149",
      "iso_mass_33": "148.917",
      "decay_type_33": "B-",
      "iso_half_33": "0.6 seconds",
      "iso_Z_33": "57",
      "iso_N_33": "92",
      "iso_A_33": "149",

      "iso_34": "La-150",
      "iso_mass_34": "149.918",
      "decay_type_34": "B-",
      "iso_half_34": "0.4 seconds",
      "iso_Z_34": "57",
      "iso_N_34": "93",
      "iso_A_34": "150",

      "iso_35": "La-151",
      "iso_mass_35": "150.920",
      "decay_type_35": "B-",
      "iso_half_35": "0.2 seconds",
      "iso_Z_35": "57",
      "iso_N_35": "94",
      "iso_A_35": "151",

      "iso_36": "La-152",
      "iso_mass_36": "151.921",
      "decay_type_36": "B-",
      "iso_half_36": "0.1 seconds",
      "iso_Z_36": "57",
      "iso_N_36": "95",
      "iso_A_36": "152"
  }
]