[
  {
"element_code": "AA4aUtLoJQRYGB24fZZ",
    "wikilink": "https://en.wikipedia.org/wiki/Lead",
    "link": "https://upload.wikimedia.org/wikipedia/commons/thumb/e/e6/Lead_electrolytic_and_1cm3_cube.jpg/800px-Lead_electrolytic_and_1cm3_cube.jpg",
    "description": "Lead (/ˈlɛd/) is a chemical element with the symbol Pb (from the Latin plumbum) and atomic number 82. It is a heavy metal that is denser than most common materials. Lead is soft and malleable, and also has a relatively low melting point. When freshly cut, lead is silvery with a hint of blue; it tarnishes to a dull gray color when exposed to air. Lead has the highest atomic number of any stable element and three of its isotopes are endpoints of major nuclear decay chains of heavier elements.",

    "element": "Lead",
    "short": "Pb",
    "element_year": "Deep Antiquity",
    "element_discovered_name": "---",
    "element_group": "Post-Transition Metal",
    "element_appearance": "Metallic Gray",
    "element_electrons": "82",
    "element_protons": "82",
    "element_neutron_common": "126",

    "radioactive": "No",
    "neutron_cross_sectional": "0.171 (b)",

    "electrical_type": "Conductor",
    "resistivity": "208 nΩm",
    "resistivity_mult": "0.0000001",
    "magnetic_type": "Diamagnetic",
    "superconducting_point": "7.2",

    "element_atomic_number": "82",
    "element_atomicmass": "207.2 (u)",
    "element_density": "10.66 (g/cm^3)",
    "element_electronegativty": "1.87",
    "element_block": "p - block",
    "element_shells_electrons": "K2 L8 M18 N32 O18 P4 Q0 R0",
    "element_model": "https://upload.wikimedia.org/wikipedia/commons/thumb/7/7d/Electron_shell_082_Lead_-_no_label.svg/800px-Electron_shell_082_Lead_-_no_label.svg.png",

    "element_boiling_kelvin": "2022 (K)",
    "element_boiling_celsius": "1749 (°C)",
    "element_boiling_fahrenheit": "3180 (°F)",
    "element_melting_kelvin": "600.61 (K)",
    "element_melting_celsius": "327.46 (°C)",
    "element_melting_fahrenheit": "621.43 (°F)",

    "element_electron_config": "4f^14, 5d^10, 6s^2, 6p^2",
    "element_ion_charge": "Pb^2+, Pb^4+",
    "element_ionization_energy1": "7.41666 (eV)",
    "element_ionization_energy2": "15.0322 (eV)",
    "element_ionization_energy3": "31.9373 (eV)",
    "element_ionization_energy4": "42.32 (eV)",
    "element_ionization_energy5": "68.8 (eV)",
    "element_atomic_radius_e": "180 (pm)",
    "element_atomic_radius": "154 (pm)",
    "element_covalent_radius": "147 (pm)",
    "element_van_der_waals": "202 (pm)",

    "element_phase": "Solid",
    "element_fusion_heat": "4.77 (kJ/mol)",
    "element_specific_heat_capacity": "0.129 J/(g·K)",
    "element_vaporization_heat": "179.5 (kJ/mol)",

    "oxidation_state_neg": "4 2 1",
    "oxidation_state_pos": "1 2 3 4",

    "speed_of_sound_gas": "---",
    "speed_of_sound_liquid": "---",
    "speed_of_sound_solid": "1190 (m/s) [room temperature, annealed]",

    "mohs_hardness": "1.5",
    "vickers_hardness": "---",
    "brinell_hardness": "38-50 (MPa)",

    "young_modulus": "16 (GPa)",
    "poisson_ratio": "0.44",
    "bulk_modulus": "46 (GPa)",
    "shear_modulus": "5.6 (GPa)",

    "earth_crust": "16.0",
    "earth_soils": "10.0",
    "urban_soils": "54.5",
    "sea_water": "0.03",
    "crustal_rocks": "10",
    "sun": "2.0",
    "solar_system": "3.1",

    "cas_number": "7439-92-1",
    "eg_number": "231-100-4",
    "health": 2,
    "flammability":0,
    "instability": 0,

      "iso_1": "Pb-178",
      "iso_mass_1": "178.00383",
      "decay_type_1": "α",
      "iso_half_1": "0.23 ms",
      "iso_Z_1": "82",
      "iso_N_1": "96",
      "iso_A_1": "178",

      "iso_2": "Pb-179",
      "iso_mass_2": "179.00215",
      "decay_type_2": "α",
      "iso_half_2": "2.6 ms",
      "iso_Z_2": "82",
      "iso_N_2": "97",
      "iso_A_2": "179",

      "iso_3": "Pb-180",
      "iso_mass_3": "179.99791",
      "decay_type_3": "α",
      "iso_half_3": "4.5 ms",
      "iso_Z_3": "82",
      "iso_N_3": "98",
      "iso_A_3": "180",

      "iso_4": "Pb-181",
      "iso_mass_4": "180.99662",
      "decay_type_4": "α",
      "iso_half_4": "0.8 ms",
      "iso_Z_4": "82",
      "iso_N_4": "99",
      "iso_A_4": "181",

      "iso_5": "Pb-182",
      "iso_mass_5": "181.99267",
      "decay_type_5": "α",
      "iso_half_5": "0.9 ms",
      "iso_Z_5": "82",
      "iso_N_5": "100",
      "iso_A_5": "182",

      "iso_6": "Pb-183",
      "iso_mass_6": "182.99187",
      "decay_type_6": "α",
      "iso_half_6": "0.5 ms",
      "iso_Z_6": "82",
      "iso_N_6": "101",
      "iso_A_6": "183",

      "iso_7": "Pb-184",
      "iso_mass_7": "183.98814",
      "decay_type_7": "α",
      "iso_half_7": "0.5 ms",
      "iso_Z_7": "82",
      "iso_N_7": "102",
      "iso_A_7": "184",

      "iso_8": "Pb-185",
      "iso_mass_8": "184.98761",
      "decay_type_8": "α",
      "iso_half_8": "0.3 ms",
      "iso_Z_8": "82",
      "iso_N_8": "103",
      "iso_A_8": "185",

      "iso_9": "Pb-186",
      "iso_mass_9": "185.98424",
      "decay_type_9": "α",
      "iso_half_9": "0.3 ms",
      "iso_Z_9": "82",
      "iso_N_9": "104",
      "iso_A_9": "186",

      "iso_10": "Pb-187",
      "iso_mass_10": "186.98391",
      "decay_type_10": "α",
      "iso_half_10": "0.2 ms",
      "iso_Z_10": "82",
      "iso_N_10": "105",
      "iso_A_10": "187",

      "iso_11": "Pb-188",
      "iso_mass_11": "187.98087",
      "decay_type_11": "α",
      "iso_half_11": "0.2 ms",
      "iso_Z_11": "82",
      "iso_N_11": "106",
      "iso_A_11": "188",

      "iso_12": "Pb-189",
      "iso_mass_12": "188.98081",
      "decay_type_12": "α",
      "iso_half_12": "0.1 ms",
      "iso_Z_12": "82",
      "iso_N_12": "107",
      "iso_A_12": "189",

      "iso_13": "Pb-190",
      "iso_mass_13": "189.97808",
      "decay_type_13": "α",
      "iso_half_13": "0.1 ms",
      "iso_Z_13": "82",
      "iso_N_13": "108",
      "iso_A_13": "190",

      "iso_14": "Pb-191",
      "iso_mass_14": "190.97827",
      "decay_type_14": "α",
      "iso_half_14": "0.1 ms",
      "iso_Z_14": "82",
      "iso_N_14": "109",
      "iso_A_14": "191",

      "iso_15": "Pb-192",
      "iso_mass_15": "191.97578",
      "decay_type_15": "α",
      "iso_half_15": "0.1 ms",
      "iso_Z_15": "82",
      "iso_N_15": "110",
      "iso_A_15": "192",

      "iso_16": "Pb-193",
      "iso_mass_16": "192.97617",
      "decay_type_16": "α",
      "iso_half_16": "0.1 ms",
      "iso_Z_16": "82",
      "iso_N_16": "111",
      "iso_A_16": "193",

      "iso_17": "Pb-194",
      "iso_mass_17": "193.97401",
      "decay_type_17": "α",
      "iso_half_17": "0.1 ms",
      "iso_Z_17": "82",
      "iso_N_17": "112",
      "iso_A_17": "194",

      "iso_18": "Pb-195",
      "iso_mass_18": "194.97454",
      "decay_type_18": "α",
      "iso_half_18": "0.1 ms",
      "iso_Z_18": "82",
      "iso_N_18": "113",
      "iso_A_18": "195",

      "iso_19": "Pb-196",
      "iso_mass_19": "195.97283",
      "decay_type_19": "α",
      "iso_half_19": "0.1 ms",
      "iso_Z_19": "82",
      "iso_N_19": "114",
      "iso_A_19": "196",

      "iso_20": "Pb-197",
      "iso_mass_20": "196.97344",
      "decay_type_20": "α",
      "iso_half_20": "0.1 ms",
      "iso_Z_20": "82",
      "iso_N_20": "115",
      "iso_A_20": "197",

      "iso_21": "Pb-198",
      "iso_mass_21": "197.97203",
      "decay_type_21": "α",
      "iso_half_21": "0.1 ms",
      "iso_Z_21": "82",
      "iso_N_21": "116",
      "iso_A_21": "198",

      "iso_22": "Pb-199",
      "iso_mass_22": "198.97291",
      "decay_type_22": "α",
      "iso_half_22": "0.1 ms",
      "iso_Z_22": "82",
      "iso_N_22": "117",
      "iso_A_22": "199",

      "iso_23": "Pb-200",
      "iso_mass_23": "199.97182",
      "decay_type_23": "α",
      "iso_half_23": "0.1 ms",
      "iso_Z_23": "82",
      "iso_N_23": "118",
      "iso_A_23": "200",

      "iso_24": "Pb-201",
      "iso_mass_24": "200.97287",
      "decay_type_24": "α",
      "iso_half_24": "0.1 ms",
      "iso_Z_24": "82",
      "iso_N_24": "119",
      "iso_A_24": "201",

      "iso_25": "Pb-202",
      "iso_mass_25": "201.97216",
      "decay_type_25": "α",
      "iso_half_25": "0.1 ms",
      "iso_Z_25": "82",
      "iso_N_25": "120",
      "iso_A_25": "202",

      "iso_26": "Pb-203",
      "iso_mass_26": "202.97339",
      "decay_type_26": "α",
      "iso_half_26": "51.92 h",
      "iso_Z_26": "82",
      "iso_N_26": "121",
      "iso_A_26": "203",

      "iso_27": "Pb-204",
      "iso_mass_27": "203.97304",
      "decay_type_27": "stable",
      "iso_half_27": "N/A",
      "iso_Z_27": "82",
      "iso_N_27": "122",
      "iso_A_27": "204",

      "iso_28": "Pb-205",
      "iso_mass_28": "204.97448",
      "decay_type_28": "B-",
      "iso_half_28": "15.3 million y",
      "iso_Z_28": "82",
      "iso_N_28": "123",
      "iso_A_28": "205",

      "iso_29": "Pb-206",
      "iso_mass_29": "205.97446",
      "decay_type_29": "stable",
      "iso_half_29": "N/A",
      "iso_Z_29": "82",
      "iso_N_29": "124",
      "iso_A_29": "206",

      "iso_30": "Pb-207",
      "iso_mass_30": "206.97590",
      "decay_type_30": "stable",
      "iso_half_30": "N/A",
      "iso_Z_30": "82",
      "iso_N_30": "125",
      "iso_A_30": "207",

      "iso_31": "Pb-208",
      "iso_mass_31": "207.97665",
      "decay_type_31": "stable",
      "iso_half_31": "N/A",
      "iso_Z_31": "82",
      "iso_N_31": "126",
      "iso_A_31": "208",

      "iso_32": "Pb-209",
      "iso_mass_32": "208.98109",
      "decay_type_32": "B-",
      "iso_half_32": "3.253 h",
      "iso_Z_32": "82",
      "iso_N_32": "127",
      "iso_A_32": "209",

      "iso_33": "Pb-210",
      "iso_mass_33": "209.98419",
      "decay_type_33": "B-",
      "iso_half_33": "22.3 y",
      "iso_Z_33": "82",
      "iso_N_33": "128",
      "iso_A_33": "210",

      "iso_34": "Pb-211",
      "iso_mass_34": "210.98874",
      "decay_type_34": "B-",
      "iso_half_34": "36.1 min",
      "iso_Z_34": "82",
      "iso_N_34": "129",
      "iso_A_34": "211",

      "iso_35": "Pb-212",
      "iso_mass_35": "211.99190",
      "decay_type_35": "B-",
      "iso_half_35": "10.64 h",
      "iso_Z_35": "82",
      "iso_N_35": "130",
      "iso_A_35": "212",

      "iso_36": "Pb-213",
      "iso_mass_36": "212.99658",
      "decay_type_36": "B-",
      "iso_half_36": "7.2 min",
      "iso_Z_36": "82",
      "iso_N_36": "131",
      "iso_A_36": "213",

      "iso_37": "Pb-214",
      "iso_mass_37": "213.99980",
      "decay_type_37": "B-",
      "iso_half_37": "26.8 min",
      "iso_Z_37": "82",
      "iso_N_37": "132",
      "iso_A_37": "214",

      "iso_38": "Pb-215",
      "iso_mass_38": "215.00474",
      "decay_type_38": "B-",
      "iso_half_38": "10.2 min",
      "iso_Z_38": "82",
      "iso_N_38": "133",
      "iso_A_38": "215",

      "iso_39": "Pb-216",
      "iso_mass_39": "216.00803",
      "decay_type_39": "B-",
      "iso_half_39": "4.2 min",
      "iso_Z_39": "82",
      "iso_N_39": "134",
      "iso_A_39": "216",

      "iso_40": "Pb-217",
      "iso_mass_40": "217.01314",
      "decay_type_40": "B-",
      "iso_half_40": "1.0 min",
      "iso_Z_40": "82",
      "iso_N_40": "135",
      "iso_A_40": "217"
  }
]