[
  {
"element_code": "AAn2bF7sJzr3rYP7pZZ",
    "wikilink": "https://en.wikipedia.org/wiki/Lutetium",
    "link": "https://upload.wikimedia.org/wikipedia/commons/thumb/7/74/Lutetium_sublimed_dendritic_and_1cm3_cube.jpg/800px-Lutetium_sublimed_dendritic_and_1cm3_cube.jpg",
    "description": "Lutetium is a chemical element with the symbol Lu and atomic number 71. It is a silvery white metal, which resists corrosion in dry air, but not in moist air. Lutetium is the last element in the lanthanide series, and it is traditionally counted among the rare earths. Lutetium is sometimes considered the first element of the 6th-period transition metals, although lanthanum is more often considered as such.",

    "element": "Lutetium",
    "short": "Lu",
    "element_year": "1906",
    "element_discovered_name": "Carl Auer von Welsbach",
    "element_group": "Lanthanoids",
    "element_appearance": "Silvery White",
    "element_electrons": "71",
    "element_protons": "71",
    "element_neutron_common": "104",

    "radioactive": "No",
    "neutron_cross_sectional": "84 (b)",

    "electrical_type": "Conductor",
    "resistivity": "5.6",
    "resistivity_mult": "0.0000001",
    "magnetic_type": "Paramagnetic",
    "superconducting_point": "0.1",

    "element_atomic_number": "71",
    "element_atomicmass": "174.9668 (u)",
    "element_density": "9.84 (g/cm^3)",
    "element_electronegativty": "1.27",
    "element_block": "f - block",
    "element_shells_electrons": "K2 L8 M18 N32 O9 P2 Q0 R0",
    "element_model": "https://upload.wikimedia.org/wikipedia/commons/thumb/f/fd/Electron_shell_071_Lutetium_-_no_label.svg/800px-Electron_shell_071_Lutetium_-_no_label.svg.png",

    "element_boiling_kelvin": "3675 (K)",
    "element_boiling_celsius": "3402 (°C)",
    "element_boiling_fahrenheit": "6156 (°F)",
    "element_melting_kelvin": "1925 (K)",
    "element_melting_celsius": "1652 (°C)",
    "element_melting_fahrenheit": "3006 (°F)",

    "element_electron_config": "4f^14, 5d^1 6s^2",
    "element_ion_charge": "Lu^3+",
    "element_ionization_energy1": "5.4259 (eV)",
    "element_ionization_energy2": "13.9 (eV)",
    "element_ionization_energy3": "20.9594 (eV)",
    "element_ionization_energy4": "45.25 (eV)",
    "element_ionization_energy5": "66.8 (eV)",
    "element_atomic_radius_e": "175 (pm)",
    "element_atomic_radius": "217 (pm)",
    "element_covalent_radius": "--- (pm)",
    "element_van_der_waals": "---",

    "element_phase": "Solid",
    "element_fusion_heat": "22 (kJ/mol)",
    "element_specific_heat_capacity": "0.154 J/(g·K)",
    "element_vaporization_heat": "414 (kJ/mol)",

    "oxidation_state_neg": "0",
    "oxidation_state_pos": "2 3",

    "mohs_hardness": "---",
    "vickers_hardness": "755-1160 (MPa)",
    "brinell_hardness": "893-1300 (MPa)",

    "young_modulus": "68.6 (GPa)",
    "poisson_ratio": "0.261",
    "bulk_modulus": "47.6 (GPa)",
    "shear_modulus": "27.2 (GPa)",

    "sea_water": "0.00015",
    "crustal_rocks": "0.8",
    "sun": "0.15",
    "solar_system": "0.037",

      "iso_1": "Lu-149",
      "iso_mass_1": "148.96404",
      "decay_type_1": "p",
      "iso_half_1": "450 ns",
      "iso_Z_1": "71",
      "iso_N_1": "78",
      "iso_A_1": "149",

      "iso_2": "Lu-150",
      "iso_mass_2": "149.95842",
      "decay_type_2": "p",
      "iso_half_2": "43 ms",
      "iso_Z_2": "71",
      "iso_N_2": "79",
      "iso_A_2": "150",

      "iso_3": "Lu-151",
      "iso_mass_3": "150.95540",
      "decay_type_3": "p",
      "iso_half_3": "80.6 ms",
      "iso_Z_3": "71",
      "iso_N_3": "80",
      "iso_A_3": "151",

      "iso_4": "Lu-152",
      "iso_mass_4": "151.95029",
      "decay_type_4": "B+",
      "iso_half_4": "650 ms",
      "iso_Z_4": "71",
      "iso_N_4": "81",
      "iso_A_4": "152",

      "iso_5": "Lu-153",
      "iso_mass_5": "152.94948",
      "decay_type_5": "α",
      "iso_half_5": "0.9 s",
      "iso_Z_5": "71",
      "iso_N_5": "82",
      "iso_A_5": "153",

      "iso_6": "Lu-154",
      "iso_mass_6": "153.94639",
      "decay_type_6": "B+",
      "iso_half_6": "1 s",
      "iso_Z_6": "71",
      "iso_N_6": "83",
      "iso_A_6": "154",

      "iso_7": "Lu-155",
      "iso_mass_7": "154.94578",
      "decay_type_7": "α",
      "iso_half_7": "68.6 ms",
      "iso_Z_7": "71",
      "iso_N_7": "84",
      "iso_A_7": "155",

      "iso_8": "Lu-156",
      "iso_mass_8": "155.94282",
      "decay_type_8": "α",
      "iso_half_8": "494 ms",
      "iso_Z_8": "71",
      "iso_N_8": "85",
      "iso_A_8": "156",

      "iso_9": "Lu-157",
      "iso_mass_9": "156.94265",
      "decay_type_9": "B+",
      "iso_half_9": "6.8 s",
      "iso_Z_9": "71",
      "iso_N_9": "86",
      "iso_A_9": "157",

      "iso_10": "Lu-158",
      "iso_mass_10": "157.93987",
      "decay_type_10": "B+",
      "iso_half_10": "1.49 min",
      "iso_Z_10": "71",
      "iso_N_10": "87",
      "iso_A_10": "158",

      "iso_11": "Lu-159",
      "iso_mass_11": "158.94006",
      "decay_type_11": "B+",
      "iso_half_11": "1.67 min",
      "iso_Z_11": "71",
      "iso_N_11": "88",
      "iso_A_11": "159",

      "iso_12": "Lu-160",
      "iso_mass_12": "159.93756",
      "decay_type_12": "B+",
      "iso_half_12": "4.8 min",
      "iso_Z_12": "71",
      "iso_N_12": "89",
      "iso_A_12": "160",

      "iso_13": "Lu-161",
      "iso_mass_13": "160.93791",
      "decay_type_13": "B+",
      "iso_half_13": "4.2 min",
      "iso_Z_13": "71",
      "iso_N_13": "90",
      "iso_A_13": "161",

      "iso_14": "Lu-162",
      "iso_mass_14": "161.93578",
      "decay_type_14": "B+",
      "iso_half_14": "18.87 min",
      "iso_Z_14": "71",
      "iso_N_14": "91",
      "iso_A_14": "162",

      "iso_15": "Lu-163",
      "iso_mass_15": "162.93635",
      "decay_type_15": "B+",
      "iso_half_15": "11.05 min",
      "iso_Z_15": "71",
      "iso_N_15": "92",
      "iso_A_15": "163",

      "iso_16": "Lu-164",
      "iso_mass_16": "163.93450",
      "decay_type_16": "B+",
      "iso_half_16": "1.5 min",
      "iso_Z_16": "71",
      "iso_N_16": "93",
      "iso_A_16": "164",

      "iso_17": "Lu-165",
      "iso_mass_17": "164.93528",
      "decay_type_17": "B+",
      "iso_half_17": "1.5 min",
      "iso_Z_17": "71",
      "iso_N_17": "94",
      "iso_A_17": "165",

      "iso_18": "Lu-166",
      "iso_mass_18": "165.93388",
      "decay_type_18": "B+",
      "iso_half_18": "1.5 min",
      "iso_Z_18": "71",
      "iso_N_18": "95",
      "iso_A_18": "166",

      "iso_19": "Lu-167",
      "iso_mass_19": "166.93495",
      "decay_type_19": "B+",
      "iso_half_19": "1.5 min",
      "iso_Z_19": "71",
      "iso_N_19": "96",
      "iso_A_19": "167",

      "iso_20": "Lu-168",
      "iso_mass_20": "167.93390",
      "decay_type_20": "B+",
      "iso_half_20": "1.5 min",
      "iso_Z_20": "71",
      "iso_N_20": "97",
      "iso_A_20": "168",

      "iso_21": "Lu-169",
      "iso_mass_21": "168.93519",
      "decay_type_21": "B+",
      "iso_half_21": "1.5 min",
      "iso_Z_21": "71",
      "iso_N_21": "98",
      "iso_A_21": "169",

      "iso_22": "Lu-170",
      "iso_mass_22": "169.93476",
      "decay_type_22": "B+",
      "iso_half_22": "1.5 min",
      "iso_Z_22": "71",
      "iso_N_22": "99",
      "iso_A_22": "170",

      "iso_23": "Lu-171",
      "iso_mass_23": "170.93633",
      "decay_type_23": "B+",
      "iso_half_23": "1.5 min",
      "iso_Z_23": "71",
      "iso_N_23": "100",
      "iso_A_23": "171",

      "iso_24": "Lu-172",
      "iso_mass_24": "171.93638",
      "decay_type_24": "B+",
      "iso_half_24": "1.5 min",
      "iso_Z_24": "71",
      "iso_N_24": "101",
      "iso_A_24": "172",

      "iso_25": "Lu-173",
      "iso_mass_25": "172.93822",
      "decay_type_25": "EC",
      "iso_half_25": "1.37 y",
      "iso_Z_25": "71",
      "iso_N_25": "102",
      "iso_A_25": "173",

    "iso_26": "Lu-174",
    "iso_mass_26": "173.94005",
    "decay_type_26": "B+",
    "iso_half_26": "3.31 y",
    "iso_Z_26": "71",
    "iso_N_26": "103",
    "iso_A_26": "174",

    "iso_27": "Lu-175",
    "iso_mass_27": "174.94077",
    "decay_type_27": "stable",
    "iso_half_27": "N/A",
    "iso_Z_27": "71",
    "iso_N_27": "104",
    "iso_A_27": "175",

    "iso_28": "Lu-176",
    "iso_mass_28": "175.94269",
    "decay_type_28": "B-",
    "iso_half_28": "3.78 × 10^10 y",
    "iso_Z_28": "71",
    "iso_N_28": "105",
    "iso_A_28": "176",

    "iso_29": "Lu-177",
    "iso_mass_29": "176.94322",
    "decay_type_29": "B-",
    "iso_half_29": "6.65 d",
    "iso_Z_29": "71",
    "iso_N_29": "106",
    "iso_A_29": "177",

    "iso_30": "Lu-178",
    "iso_mass_30": "177.94557",
    "decay_type_30": "B-",
    "iso_half_30": "28.4 min",
    "iso_Z_30": "71",
    "iso_N_30": "107",
    "iso_A_30": "178",

    "iso_31": "Lu-179",
    "iso_mass_31": "178.94656",
    "decay_type_31": "B-",
    "iso_half_31": "4.6 h",
    "iso_Z_31": "71",
    "iso_N_31": "108",
    "iso_A_31": "179",

    "iso_32": "Lu-180",
    "iso_mass_32": "179.94988",
    "decay_type_32": "B-",
    "iso_half_32": "3.6 h",
    "iso_Z_32": "71",
    "iso_N_32": "109",
    "iso_A_32": "180",

    "iso_33": "Lu-181",
    "iso_mass_33": "180.95197",
    "decay_type_33": "B-",
    "iso_half_33": "3.9 min",
    "iso_Z_33": "71",
    "iso_N_33": "110",
    "iso_A_33": "181",

    "iso_34": "Lu-182",
    "iso_mass_34": "181.95504",
    "decay_type_34": "B-",
    "iso_half_34": "2.6 min",
    "iso_Z_34": "71",
    "iso_N_34": "111",
    "iso_A_34": "182",

    "iso_35": "Lu-183",
    "iso_mass_35": "182.95757",
    "decay_type_35": "B-",
    "iso_half_35": "1.3 min",
    "iso_Z_35": "71",
    "iso_N_35": "112",
    "iso_A_35": "183",

    "iso_36": "Lu-184",
    "iso_mass_36": "183.96091",
    "decay_type_36": "B-",
    "iso_half_36": "49 s",
    "iso_Z_36": "71",
    "iso_N_36": "113",
    "iso_A_36": "184",

    "iso_37": "Lu-185",
    "iso_mass_37": "184.96362",
    "decay_type_37": "B-",
    "iso_half_37": "4.2 s",
    "iso_Z_37": "71",
    "iso_N_37": "114",
    "iso_A_37": "185",

    "iso_38": "Lu-186",
    "iso_mass_38": "185.96773",
    "decay_type_38": "B-",
    "iso_half_38": "2.6 s",
    "iso_Z_38": "71",
    "iso_N_38": "115",
    "iso_A_38": "186",

    "iso_39": "Lu-187",
    "iso_mass_39": "186.97079",
    "decay_type_39": "B-",
    "iso_half_39": "0.5 s",
    "iso_Z_39": "71",
    "iso_N_39": "116",
    "iso_A_39": "187",

    "iso_40": "Lu-188",
    "iso_mass_40": "187.97496",
    "decay_type_40": "B-",
    "iso_half_40": "0.3 s",
    "iso_Z_40": "71",
    "iso_N_40": "117",
    "iso_A_40": "188"
  }
]