[
  {
"element_code": "",
    "wikilink": "https://en.wikipedia.org/wiki/Meitnerium",
    "link": "empty",
    "description": "Meitnerium is a synthetic chemical element with the symbol Mt and atomic number 109. It is an extremely radioactive synthetic element (an element not found in nature, but can be created in a laboratory). The most stable known isotope, meitnerium-278, has a half-life of 4.5 seconds, although the unconfirmed meitnerium-282 may have a longer half-life of 67 seconds. The GSI Helmholtz Centre for Heavy Ion Research near Darmstadt, Germany, first created this element in 1982. It is named after Lise Meitner.",

    "element": "Meitnerium",
    "short": "Mt",
    "element_year": "---",
    "element_discovered_name": "---",
    "element_group": "Transition Metals",
    "element_appearance": "---",
    "element_electrons": "---",
    "element_protons": "---",
    "element_neutron_common": "---",

    "radioactive": "Yes",
    "neutron_cross_sectional": "767 (b)",

    "electrical_type": "---",
    "resistivity": "---",
    "resistivity_mult": "---",
    "magnetic_type": "---",
    "superconducting_point": "---",

    "element_atomic_number": "109",
    "element_atomicmass": "278 (u)",
    "element_density": "--- (g/cm^3)",
    "element_electronegativty": "---",
    "element_block": "d - block",
    "element_shells_electrons": "K2 L8 M18 N32 O32 P15 Q2 R0",
    "element_model": "https://upload.wikimedia.org/wikipedia/commons/thumb/5/58/Electron_shell_109_Meitnerium_-_no_label.svg/800px-Electron_shell_109_Meitnerium_-_no_label.svg.png",

    "element_boiling_kelvin": "--- (K)",
    "element_boiling_celsius": "--- (°C)",
    "element_boiling_fahrenheit": "--- (°F)",
    "element_melting_kelvin": "--- (K)",
    "element_melting_celsius": "--- (°C)",
    "element_melting_fahrenheit": "--- (°F)",

    "element_electron_config": "5f^14, 6d^7. 7s^2",
    "element_ion_charge": "---",
    "element_ionization_energy1": "---",
    "element_atomic_radius_e": "--- (pm)",
    "element_atomic_radius": "--- (pm)",
    "element_covalent_radius": "---",
    "element_van_der_waals": "--- (pm)",

    "element_phase": "Solid",
    "element_fusion_heat": "--- (kJ/mol)",
    "element_specific_heat_capacity": "--- J/(g·K)",
    "element_vaporization_heat": "--- (kJ/mol)",

    "iso_1": "--",
    "iso_mass_1": "--",
    "iso_half_1": "--",
    "iso_Z_1": "--",
    "iso_N_1": "--",
    "iso_A_1": "--"
  }
]