[
  {
"element_code": "AA7abfuRPnTy2tQXNZZ",
    "wikilink": "https://en.wikipedia.org/wiki/Mendelevium",
    "link": "empty",
    "description": "Mendelevium is a synthetic element with the symbol Md (formerly Mv) and atomic number 101. A metallic radioactive transuranic element in the actinide series, it is the first element by atomic number that currently cannot be produced in macroscopic quantities through neutron bombardment of lighter elements. It is the third-to-last actinide and the ninth transuranic element. It can only be produced in particle accelerators by bombarding lighter elements with charged particles. A total of seventeen mendelevium isotopes are known, the most stable being Md-258 with a half-life of 51 days; nevertheless, the shorter-lived Md-256 (half-life 1.17 hours) is most commonly used in chemistry because it can be produced on a larger scale.",

    "element": "Mendelevium",
    "short": "Md",
    "element_year": "1955",
    "element_discovered_name": "Lawrence Berkeley National Laboratory",
    "element_group": "Actinide",
    "element_appearance": "---",
    "element_electrons": "101",
    "element_protons": "101",
    "element_neutron_common": "157",

    "radioactive": "Yes",
    "neutron_cross_sectional": "--- (b)",

    "electrical_type": "---",
    "resistivity": "---",
    "resistivity_mult": "---",
    "magnetic_type": "---",
    "superconducting_point": "---",

    "element_atomic_number": "101",
    "element_atomicmass": "258 (u)",
    "element_density": "10.3 (g/cm^3)",
    "element_electronegativty": "1.3",
    "element_block": "f - block",
    "element_shells_electrons": "K2 L8 M18 N32 O31 P8 Q2 R0",
    "element_model": "https://upload.wikimedia.org/wikipedia/commons/thumb/4/4d/Electron_shell_101_Mendelevium_-_no_label.svg/800px-Electron_shell_101_Mendelevium_-_no_label.svg.png",

    "element_boiling_kelvin": "--- (K)",
    "element_boiling_celsius": "--- (°C)",
    "element_boiling_fahrenheit": "--- (°F)",
    "element_melting_kelvin": "1100 (K)",
    "element_melting_celsius": "827 (°C)",
    "element_melting_fahrenheit": "1521 (°F)",

    "element_electron_config": "5f^13, 7s^2",
    "element_ion_charge": "Md^2+, Md^3+",
    "element_ionization_energy1": "6.58 (eV)",
    "element_atomic_radius_e": "--- (pm)",
    "element_atomic_radius": "--- (pm)",
    "element_covalent_radius": "---",
    "element_van_der_waals": "--- (pm)",

    "element_phase": "Solid",
    "element_fusion_heat": "--- (kJ/mol)",
    "element_specific_heat_capacity": "--- J/(g·K)",
    "element_vaporization_heat": "--- (kJ/mol)",

    "oxidation_state_neg": "",
    "oxidation_state_pos": "2 3",

    "cas_number": "7439-97-6",
    "eg_number": "231-106-7",

      "iso_1": "Mendelevium-244",
      "iso_mass_1": "244",
      "decay_type_1": "α",
      "iso_half_1": "0.3 seconds",
      "iso_Z_1": "101",
      "iso_N_1": "143",
      "iso_A_1": "244",

      "iso_2": "Mendelevium-245",
      "iso_mass_2": "245",
      "decay_type_2": "α",
      "iso_half_2": "0.33 seconds",
      "iso_Z_2": "101",
      "iso_N_2": "144",
      "iso_A_2": "245",

      "iso_3": "Mendelevium-246",
      "iso_mass_3": "246",
      "decay_type_3": "B+",
      "iso_half_3": "0.9 seconds",
      "iso_Z_3": "101",
      "iso_N_3": "145",
      "iso_A_3": "246",

      "iso_4": "Mendelevium-247",
      "iso_mass_4": "247",
      "decay_type_4": "α",
      "iso_half_4": "1.2 seconds",
      "iso_Z_4": "101",
      "iso_N_4": "146",
      "iso_A_4": "247",

      "iso_5": "Mendelevium-248",
      "iso_mass_5": "248",
      "decay_type_5": "B+",
      "iso_half_5": "7 seconds",
      "iso_Z_5": "101",
      "iso_N_5": "147",
      "iso_A_5": "248",

      "iso_6": "Mendelevium-249",
      "iso_mass_6": "249",
      "decay_type_6": "α",
      "iso_half_6": "26 seconds",
      "iso_Z_6": "101",
      "iso_N_6": "148",
      "iso_A_6": "249",

      "iso_7": "Mendelevium-250",
      "iso_mass_7": "250",
      "decay_type_7": "B+",
      "iso_half_7": "54 seconds",
      "iso_Z_7": "101",
      "iso_N_7": "149",
      "iso_A_7": "250",

      "iso_8": "Mendelevium-251",
      "iso_mass_8": "251",
      "decay_type_8": "B+",
      "iso_half_8": "4.27 minutes",
      "iso_Z_8": "101",
      "iso_N_8": "150",
      "iso_A_8": "251",

      "iso_9": "Mendelevium-252",
      "iso_mass_9": "252",
      "decay_type_9": "B+",
      "iso_half_9": "2.3 minutes",
      "iso_Z_9": "101",
      "iso_N_9": "151",
      "iso_A_9": "252",

      "iso_10": "Mendelevium-253",
      "iso_mass_10": "253",
      "decay_type_10": "B+",
      "iso_half_10": "12 minutes",
      "iso_Z_10": "101",
      "iso_N_10": "152",
      "iso_A_10": "253",

      "iso_11": "Mendelevium-254",
      "iso_mass_11": "254",
      "decay_type_11": "B+",
      "iso_half_11": "10 minutes",
      "iso_Z_11": "101",
      "iso_N_11": "153",
      "iso_A_11": "254",

      "iso_12": "Mendelevium-255",
      "iso_mass_12": "255",
      "decay_type_12": "B+",
      "iso_half_12": "27 minutes",
      "iso_Z_12": "101",
      "iso_N_12": "154",
      "iso_A_12": "255",

      "iso_13": "Mendelevium-256",
      "iso_mass_13": "256",
      "decay_type_13": "B+",
      "iso_half_13": "77 minutes",
      "iso_Z_13": "101",
      "iso_N_13": "155",
      "iso_A_13": "256",

      "iso_14": "Mendelevium-257",
      "iso_mass_14": "257",
      "decay_type_14": "EC",
      "iso_half_14": "5.52 hours",
      "iso_Z_14": "101",
      "iso_N_14": "156",
      "iso_A_14": "257",

      "iso_15": "Mendelevium-258",
      "iso_mass_15": "258",
      "decay_type_15": "α",
      "iso_half_15": "51.5 days",
      "iso_Z_15": "101",
      "iso_N_15": "157",
      "iso_A_15": "258",

      "iso_16": "Mendelevium-259",
      "iso_mass_16": "259",
      "decay_type_16": "SF",
      "iso_half_16": "1.6 hours",
      "iso_Z_16": "101",
      "iso_N_16": "158",
      "iso_A_16": "259",

      "iso_17": "Mendelevium-260",
      "iso_mass_17": "260",
      "decay_type_17": "SF",
      "iso_half_17": "27.8 days",
      "iso_Z_17": "101",
      "iso_N_17": "159",
      "iso_A_17": "260"
  }
]