[
  {
"element_code": "AAd7KEHAXuiohSNqMZZ",
    "wikilink": "https://en.wikipedia.org/wiki/Mercury",
    "link": "https://upload.wikimedia.org/wikipedia/commons/thumb/9/99/Pouring_liquid_mercury_bionerd.jpg/800px-Pouring_liquid_mercury_bionerd.jpg",
    "description": "Mercury is a chemical element with the symbol Hg and atomic number 80. It is commonly known as quicksilver and was formerly named hydrargyrum (/haɪˈdrɑːrdʒərəm/ hy-DRAR-jər-əm). A heavy, silvery d-block element, mercury is the only metallic element that is liquid at standard conditions for temperature and pressure; the only other element that is liquid under these conditions is the halogen bromine, though metals such as caesium, gallium, and rubidium melt just above room temperature.",

    "element": "Mercury",
    "short": "Hg",
    "element_year": "Deep Antiquity",
    "element_discovered_name": "---",
    "element_group": "Transition Metals",
    "element_appearance": "Silvery",
    "element_electrons": "80",
    "element_protons": "80",
    "element_neutron_common": "122",

    "radioactive": "No",
    "neutron_cross_sectional": "374 (b)",

    "electrical_type": "Conductor",
    "resistivity": "9.6",
    "resistivity_mult": "0.0000001",
    "magnetic_type": "Diamagnetic",
    "superconducting_point": "4.154",

    "element_atomic_number": "80",
    "element_atomicmass": "200.592 (u)",
    "element_density": "13.534 (g/cm^3)",
    "element_electronegativty": "2.00",
    "element_block": "d - block",
    "element_shells_electrons": "K2 L8 M18 N32 O18 P2 Q0 R0",
    "element_model": "https://upload.wikimedia.org/wikipedia/commons/thumb/0/05/Electron_shell_080_Mercury_-_no_label.svg/800px-Electron_shell_080_Mercury_-_no_label.svg.png",

    "element_boiling_kelvin": "629.88 (K)",
    "element_boiling_celsius": "356.73 (°C)",
    "element_boiling_fahrenheit": "674.11 (°F)",
    "element_melting_kelvin": "234.321 (K)",
    "element_melting_celsius": "−38.829 (°C)",
    "element_melting_fahrenheit": "−37.8922 (°F)",

    "element_electron_config": "4f^14, 5d^10, 6s^2",
    "element_ion_charge": "Hg^2+",
    "element_ionization_energy1": "10.43750 (eV)",
    "element_ionization_energy2": "18.756 (eV)",
    "element_ionization_energy3": "34.2 (eV)",
    "element_atomic_radius_e": "150 (pm)",
    "element_atomic_radius": "171 (pm)",
    "element_covalent_radius": "149 (pm)",
    "element_van_der_waals": "155 (pm)",

    "element_phase": "Solid",
    "element_fusion_heat": "2.29 (kJ/mol)",
    "element_specific_heat_capacity": "0.140 J/(g·K)",
    "element_vaporization_heat": "59.11 (kJ/mol)",

    "oxidation_state_neg": "2",
    "oxidation_state_pos": "1 2",

    "speed_of_sound_gas": "---",
    "speed_of_sound_liquid": "1451 (m/s) [20°C]",
    "speed_of_sound_solid": "---",

    "mohs_hardness": "1.5",
    "vickers_hardness": "---",
    "brinell_hardness": "---",

    "earth_crust": "0.08",
    "earth_soils": "0.01",
    "urban_soils": "0.88",

      "iso_1": "Hg-170",
      "iso_mass_1": "169.99612",
      "decay_type_1": "α",
      "iso_half_1": "80 μs",
      "iso_Z_1": "80",
      "iso_N_1": "90",
      "iso_A_1": "170",

      "iso_2": "Hg-171",
      "iso_mass_2": "170.99347",
      "decay_type_2": "α",
      "iso_half_2": "80 μs",
      "iso_Z_2": "80",
      "iso_N_2": "91",
      "iso_A_2": "171",

      "iso_3": "Hg-172",
      "iso_mass_3": "171.99883",
      "decay_type_3": "α",
      "iso_half_3": "420 μs",
      "iso_Z_3": "80",
      "iso_N_3": "92",
      "iso_A_3": "172",

      "iso_4": "Hg-173",
      "iso_mass_4": "172.99724",
      "decay_type_4": "α",
      "iso_half_4": "1.1 ms",
      "iso_Z_4": "80",
      "iso_N_4": "93",
      "iso_A_4": "173",

      "iso_5": "Hg-174",
      "iso_mass_5": "173.99286",
      "decay_type_5": "α",
      "iso_half_5": "2.0 ms",
      "iso_Z_5": "80",
      "iso_N_5": "94",
      "iso_A_5": "174",

      "iso_6": "Hg-175",
      "iso_mass_6": "174.99142",
      "decay_type_6": "α",
      "iso_half_6": "10.8 ms",
      "iso_Z_6": "80",
      "iso_N_6": "95",
      "iso_A_6": "175",

      "iso_7": "Hg-176",
      "iso_mass_7": "175.98736",
      "decay_type_7": "α",
      "iso_half_7": "20.4 ms",
      "iso_Z_7": "80",
      "iso_N_7": "96",
      "iso_A_7": "176",

      "iso_8": "Hg-177",
      "iso_mass_8": "176.98628",
      "decay_type_8": "α",
      "iso_half_8": "127.3 ms",
      "iso_Z_8": "80",
      "iso_N_8": "97",
      "iso_A_8": "177",

      "iso_9": "Hg-178",
      "iso_mass_9": "177.98248",
      "decay_type_9": "α",
      "iso_half_9": "269 ms",
      "iso_Z_9": "80",
      "iso_N_9": "98",
      "iso_A_9": "178",

      "iso_10": "Hg-179",
      "iso_mass_10": "178.98183",
      "decay_type_10": "α",
      "iso_half_10": "1.09 s",
      "iso_Z_10": "80",
      "iso_N_10": "99",
      "iso_A_10": "179",

      "iso_11": "Hg-180",
      "iso_mass_11": "179.97826",
      "decay_type_11": "B+",
      "iso_half_11": "2.58 s",
      "iso_Z_11": "80",
      "iso_N_11": "100",
      "iso_A_11": "180",

      "iso_12": "Hg-181",
      "iso_mass_12": "180.97782",
      "decay_type_12": "B+",
      "iso_half_12": "3.6 s",
      "iso_Z_12": "80",
      "iso_N_12": "101",
      "iso_A_12": "181",

      "iso_13": "Hg-182",
      "iso_mass_13": "181.97469",
      "decay_type_13": "B+",
      "iso_half_13": "10.83 s",
      "iso_Z_13": "80",
      "iso_N_13": "102",
      "iso_A_13": "182",

      "iso_14": "Hg-183",
      "iso_mass_14": "182.97445",
      "decay_type_14": "B+",
      "iso_half_14": "9.4 s",
      "iso_Z_14": "80",
      "iso_N_14": "103",
      "iso_A_14": "183",

      "iso_15": "Hg-184",
      "iso_mass_15": "183.97171",
      "decay_type_15": "B+",
      "iso_half_15": "30.6 s",
      "iso_Z_15": "80",
      "iso_N_15": "104",
      "iso_A_15": "184",

      "iso_16": "Hg-185",
      "iso_mass_16": "184.97190",
      "decay_type_16": "B+",
      "iso_half_16": "49.1 s",
      "iso_Z_16": "80",
      "iso_N_16": "105",
      "iso_A_16": "185",

      "iso_17": "Hg-186",
      "iso_mass_17": "185.96936",
      "decay_type_17": "B+",
      "iso_half_17": "1.38 min",
      "iso_Z_17": "80",
      "iso_N_17": "106",
      "iso_A_17": "186",

      "iso_18": "Hg-187",
      "iso_mass_18": "186.96981",
      "decay_type_18": "B+",
      "iso_half_18": "1.9 min",
      "iso_Z_18": "80",
      "iso_N_18": "107",
      "iso_A_18": "187",

      "iso_19": "Hg-188",
      "iso_mass_19": "187.96758",
      "decay_type_19": "B+",
      "iso_half_19": "3.25 min",
      "iso_Z_19": "80",
      "iso_N_19": "108",
      "iso_A_19": "188",

      "iso_20": "Hg-189",
      "iso_mass_20": "188.96819",
      "decay_type_20": "B+",
      "iso_half_20": "10.4 min",
      "iso_Z_20": "80",
      "iso_N_20": "109",
      "iso_A_20": "189",

      "iso_21": "Hg-190",
      "iso_mass_21": "189.96632",
      "decay_type_21": "B+",
      "iso_half_21": "20.0 min",
      "iso_Z_21": "80",
      "iso_N_21": "110",
      "iso_A_21": "190",

      "iso_22": "Hg-191",
      "iso_mass_22": "190.96715",
      "decay_type_22": "B+",
      "iso_half_22": "49.7 min",
      "iso_Z_22": "80",
      "iso_N_22": "111",
      "iso_A_22": "191",

      "iso_23": "Hg-192",
      "iso_mass_23": "191.96563",
      "decay_type_23": "B+",
      "iso_half_23": "4.85 h",
      "iso_Z_23": "80",
      "iso_N_23": "112",
      "iso_A_23": "192",

      "iso_24": "Hg-193",
      "iso_mass_24": "192.96665",
      "decay_type_24": "B+",
      "iso_half_24": "11.8 h",
      "iso_Z_24": "80",
      "iso_N_24": "113",
      "iso_A_24": "193",

      "iso_25": "Hg-194",
      "iso_mass_25": "193.96507",
      "decay_type_25": "B+",
      "iso_half_25": "444 y",
      "iso_Z_25": "80",
      "iso_N_25": "114",
      "iso_A_25": "194",

      "iso_26": "Hg-195",
      "iso_mass_26": "194.96672",
      "decay_type_26": "B+",
      "iso_half_26": "9.9 h",
      "iso_Z_26": "80",
      "iso_N_26": "115",
      "iso_A_26": "195",

      "iso_27": "Hg-196",
      "iso_mass_27": "195.96583",
      "decay_type_27": "stable",
      "iso_half_27": "N/A",
      "iso_Z_27": "80",
      "iso_N_27": "116",
      "iso_A_27": "196",

      "iso_28": "Hg-197",
      "iso_mass_28": "196.967213",
      "decay_type_28": "B+",
      "iso_half_28": "64.14 h",
      "iso_Z_28": "80",
      "iso_N_28": "117",
      "iso_A_28": "197",

      "iso_29": "Hg-198",
      "iso_mass_29": "197.966769",
      "decay_type_29": "stable",
      "iso_half_29": "N/A",
      "iso_Z_29": "80",
      "iso_N_29": "118",
      "iso_A_29": "198",

      "iso_30": "Hg-199",
      "iso_mass_30": "198.968279",
      "decay_type_30": "stable",
      "iso_half_30": "N/A",
      "iso_Z_30": "80",
      "iso_N_30": "119",
      "iso_A_30": "199",

      "iso_31": "Hg-200",
      "iso_mass_31": "199.968326",
      "decay_type_31": "stable",
      "iso_half_31": "N/A",
      "iso_Z_31": "80",
      "iso_N_31": "120",
      "iso_A_31": "200",

      "iso_32": "Hg-201",
      "iso_mass_32": "200.970302",
      "decay_type_32": "stable",
      "iso_half_32": "N/A",
      "iso_Z_32": "80",
      "iso_N_32": "121",
      "iso_A_32": "201",

      "iso_33": "Hg-202",
      "iso_mass_33": "201.970643",
      "decay_type_33": "stable",
      "iso_half_33": "N/A",
      "iso_Z_33": "80",
      "iso_N_33": "122",
      "iso_A_33": "202",

      "iso_34": "Hg-203",
      "iso_mass_34": "202.972872",
      "decay_type_34": "B-",
      "iso_half_34": "46.612 d",
      "iso_Z_34": "80",
      "iso_N_34": "123",
      "iso_A_34": "203",

      "iso_35": "Hg-204",
      "iso_mass_35": "203.973493",
      "decay_type_35": "stable",
      "iso_half_35": "N/A",
      "iso_Z_35": "80",
      "iso_N_35": "124",
      "iso_A_35": "204",

      "iso_36": "Hg-205",
      "iso_mass_36": "204.976073",
      "decay_type_36": "B-",
      "iso_half_36": "5.14 min",
      "iso_Z_36": "80",
      "iso_N_36": "125",
      "iso_A_36": "205",

      "iso_37": "Hg-206",
      "iso_mass_37": "205.977514",
      "decay_type_37": "B-",
      "iso_half_37": "8.15 min",
      "iso_Z_37": "80",
      "iso_N_37": "126",
      "iso_A_37": "206",

      "iso_38": "Hg-207",
      "iso_mass_38": "206.98259",
      "decay_type_38": "B-",
      "iso_half_38": "2.9 min",
      "iso_Z_38": "80",
      "iso_N_38": "127",
      "iso_A_38": "207",

      "iso_39": "Hg-208",
      "iso_mass_39": "207.98594",
      "decay_type_39": "B-",
      "iso_half_39": "42 s",
      "iso_Z_39": "80",
      "iso_N_39": "128",
      "iso_A_39": "208",

      "iso_40": "Hg-209",
      "iso_mass_40": "208.99104",
      "decay_type_40": "B-",
      "iso_half_40": "35 s",
      "iso_Z_40": "80",
      "iso_N_40": "129",
      "iso_A_40": "209"
  }
]