[
  {
"element_code": "AAgKdRPjE2rjuqHimZZ",
    "wikilink": "https://en.wikipedia.org/wiki/Neodymium",
    "link": "https://upload.wikimedia.org/wikipedia/commons/b/ba/Neodymium2.jpg",
    "description": "Neodymium is a chemical element with the symbol Nd and atomic number 60. Neodymium belongs to the lanthanide series and is a rare-earth element. It is a hard, slightly malleable silvery metal that quickly tarnishes in air and moisture. When oxidized, neodymium reacts quickly to produce pink, purple/blue and yellow compounds in the +2, +3 and +4 oxidation states. Neodymium was discovered in 1885 by the Austrian chemist Carl Auer von Welsbach. It is present in significant quantities in the ore minerals monazite and bastnäsite. Neodymium is not found naturally in metallic form or unmixed with other lanthanides, and it is usually refined for general use. Although neodymium is classed as a rare-earth element, it is fairly common, no rarer than cobalt, nickel, or copper, and is widely distributed in the Earth's crust. Most of the world's commercial neodymium is mined in China.",

    "element": "Neodymium",
    "short": "Nd",
    "element_year": "1885",
    "element_discovered_name": "Carl Auer von Welsbach",
    "element_group": "Lanthanoids",
    "element_appearance": "Silvery White",
    "element_electrons": "60",
    "element_protons": "60",
    "element_neutron_common": "82",

    "radioactive": "No",
    "neutron_cross_sectional": "49 (b)",

    "electrical_type": "Conductor",
    "resistivity": "643 nΩm",
    "resistivity_mult": "0.0000001",
    "magnetic_type": "Paramagnetic",
    "superconducting_point": "---",

    "element_atomic_number": "60",
    "element_atomicmass": "144.242 (u)",
    "element_density": "7.01 (g/cm^3)",
    "element_electronegativty": "1.14",
    "element_block": "f - block",
    "element_shells_electrons": "K2 L8 18 N22 O8 P2 Q0 R0",
    "element_model": "https://upload.wikimedia.org/wikipedia/commons/thumb/b/b3/Electron_shell_060_Neodymium_-_no_label.svg/800px-Electron_shell_060_Neodymium_-_no_label.svg.png",

    "element_boiling_kelvin": "3347 (K)",
    "element_boiling_celsius": "3074 (°C)",
    "element_boiling_fahrenheit": "5565 (°F)",
    "element_melting_kelvin": "1297 (K)",
    "element_melting_celsius": "1024 (°C)",
    "element_melting_fahrenheit": "1875 (°F)",

    "element_electron_config": "4f^4 6s^2",
    "element_ion_charge": "Nd^3+",
    "element_ionization_energy1": "5.5250 (eV)",
    "element_ionization_energy2": "10.73 (eV)",
    "element_ionization_energy3": "22.1 (eV)",
    "element_ionization_energy4": "40.41 (eV)",
    "element_atomic_radius": "206 (pm)",
    "element_atomic_radius_e": "185 (pm)",
    "element_covalent_radius": "--- (pm)",
    "element_van_der_waals": "---",

    "element_phase": "Solid",
    "element_fusion_heat": "7.14 (kJ/mol)",
    "element_specific_heat_capacity": "0.190 J/(g·K)",
    "element_vaporization_heat": "289 (kJ/mol)",

    "oxidation_state_neg": "0",
    "oxidation_state_pos": "2 3 4",

    "speed_of_sound_gas": "---",
    "speed_of_sound_liquid": "---",
    "speed_of_sound_solid": "2330 (m/s) [20°C]",

    "mohs_hardness": "---",
    "vickers_hardness": "343-746 (MPa)",
    "brinell_hardness": "265-700 (MPa)",

    "young_modulus": "41.4 (GPa) [α-form]",
    "poisson_ratio": "0.281 [α-form]",
    "bulk_modulus": "31.8 (GPa) [α-form]",
    "shear_modulus": "16.3 (GPa) [α-form]",

    "sea_water": "0.0028",
    "crustal_rocks": "44",
    "sun": "0.9",
    "solar_system": "0.83",

    "cas_number": "7440-00-8",
    "eg_number": "231-108-2",

      "iso_1": "Nd-124",
      "iso_mass_1": "123.95223",
      "decay_type_1": "B+",
      "iso_half_1": "500 ms",
      "iso_Z_1": "60",
      "iso_N_1": "64",
      "iso_A_1": "124",

      "iso_2": "Nd-125",
      "iso_mass_2": "124.94888",
      "decay_type_2": "B+",
      "iso_half_2": "600 ms",
      "iso_Z_2": "60",
      "iso_N_2": "65",
      "iso_A_2": "125",

      "iso_3": "Nd-126",
      "iso_mass_3": "125.94322",
      "decay_type_3": "B+",
      "iso_half_3": "1 s",
      "iso_Z_3": "60",
      "iso_N_3": "66",
      "iso_A_3": "126",

      "iso_4": "Nd-127",
      "iso_mass_4": "126.94050",
      "decay_type_4": "B+",
      "iso_half_4": "1.8 s",
      "iso_Z_4": "60",
      "iso_N_4": "67",
      "iso_A_4": "127",

      "iso_5": "Nd-128",
      "iso_mass_5": "127.93539",
      "decay_type_5": "B+",
      "iso_half_5": "5 s",
      "iso_Z_5": "60",
      "iso_N_5": "68",
      "iso_A_5": "128",

      "iso_6": "Nd-129",
      "iso_mass_6": "128.93319",
      "decay_type_6": "B+",
      "iso_half_6": "4.9 s",
      "iso_Z_6": "60",
      "iso_N_6": "69",
      "iso_A_6": "129",

      "iso_7": "Nd-130",
      "iso_mass_7": "129.92851",
      "decay_type_7": "B+",
      "iso_half_7": "21 s",
      "iso_Z_7": "60",
      "iso_N_7": "70",
      "iso_A_7": "130",

      "iso_8": "Nd-131",
      "iso_mass_8": "130.92725",
      "decay_type_8": "B+",
      "iso_half_8": "33 s",
      "iso_Z_8": "60",
      "iso_N_8": "71",
      "iso_A_8": "131",

      "iso_9": "Nd-132",
      "iso_mass_9": "131.92332",
      "decay_type_9": "B+",
      "iso_half_9": "1.56 min",
      "iso_Z_9": "60",
      "iso_N_9": "72",
      "iso_A_9": "132",

      "iso_10": "Nd-133",
      "iso_mass_10": "132.92235",
      "decay_type_10": "B+",
      "iso_half_10": "70 s",
      "iso_Z_10": "60",
      "iso_N_10": "73",
      "iso_A_10": "133",

      "iso_11": "Nd-134",
      "iso_mass_11": "133.91879",
      "decay_type_11": "B+",
      "iso_half_11": "8.5 min",
      "iso_Z_11": "60",
      "iso_N_11": "74",
      "iso_A_11": "134",

      "iso_12": "Nd-135",
      "iso_mass_12": "134.91818",
      "decay_type_12": "B+",
      "iso_half_12": "3.5 min",
      "iso_Z_12": "60",
      "iso_N_12": "75",
      "iso_A_12": "135",

      "iso_13": "Nd-136",
      "iso_mass_13": "135.91498",
      "decay_type_13": "B+",
      "iso_half_13": "1.56 min",
      "iso_Z_13": "60",
      "iso_N_13": "76",
      "iso_A_13": "136",

      "iso_14": "Nd-137",
      "iso_mass_14": "136.91456",
      "decay_type_14": "B+",
      "iso_half_14": "1.1 min",
      "iso_Z_14": "60",
      "iso_N_14": "77",
      "iso_A_14": "137",

      "iso_15": "Nd-138",
      "iso_mass_15": "137.91195",
      "decay_type_15": "B+",
      "iso_half_15": "5.5 min",
      "iso_Z_15": "60",
      "iso_N_15": "78",
      "iso_A_15": "138",

      "iso_16": "Nd-139",
      "iso_mass_16": "138.91195",
      "decay_type_16": "B+",
      "iso_half_16": "5.5 min",
      "iso_Z_16": "60",
      "iso_N_16": "79",
      "iso_A_16": "139",

      "iso_17": "Nd-140",
      "iso_mass_17": "139.90955",
      "decay_type_17": "B+",
      "iso_half_17": "3.39 min",
      "iso_Z_17": "60",
      "iso_N_17": "80",
      "iso_A_17": "140",

      "iso_18": "Nd-141",
      "iso_mass_18": "140.90961",
      "decay_type_18": "B+",
      "iso_half_18": "2.49 min",
      "iso_Z_18": "60",
      "iso_N_18": "81",
      "iso_A_18": "141",

      "iso_19": "Nd-142",
      "iso_mass_19": "141.90773",
      "decay_type_19": "stable",
      "iso_half_19": "stable",
      "iso_Z_19": "60",
      "iso_N_19": "82",
      "iso_A_19": "142",

      "iso_20": "Nd-143",
      "iso_mass_20": "142.90982",
      "decay_type_20": "stable",
      "iso_half_20": "stable",
      "iso_Z_20": "60",
      "iso_N_20": "83",
      "iso_A_20": "143",

      "iso_21": "Nd-144",
      "iso_mass_21": "143.91009",
      "decay_type_21": "alpha",
      "iso_half_21": "2.29×10^15 years",
      "iso_Z_21": "60",
      "iso_N_21": "84",
      "iso_A_21": "144",

      "iso_22": "Nd-145",
      "iso_mass_22": "144.91258",
      "decay_type_22": "stable",
      "iso_half_22": "stable",
      "iso_Z_22": "60",
      "iso_N_22": "85",
      "iso_A_22": "145",

      "iso_23": "Nd-146",
      "iso_mass_23": "145.91312",
      "decay_type_23": "stable",
      "iso_half_23": "stable",
      "iso_Z_23": "60",
      "iso_N_23": "86",
      "iso_A_23": "146",

      "iso_24": "Nd-147",
      "iso_mass_24": "146.91610",
      "decay_type_24": "B-",
      "iso_half_24": "10.98 days",
      "iso_Z_24": "60",
      "iso_N_24": "87",
      "iso_A_24": "147",

      "iso_25": "Nd-148",
      "iso_mass_25": "147.91690",
      "decay_type_25": "stable",
      "iso_half_25": "stable",
      "iso_Z_25": "60",
      "iso_N_25": "88",
      "iso_A_25": "148",

      "iso_26": "Nd-149",
      "iso_mass_26": "148.92015",
      "decay_type_26": "B-",
      "iso_half_26": "1.728 hours",
      "iso_Z_26": "60",
      "iso_N_26": "89",
      "iso_A_26": "149",

      "iso_27": "Nd-150",
      "iso_mass_27": "149.92090",
      "decay_type_27": "stable",
      "iso_half_27": "stable",
      "iso_Z_27": "60",
      "iso_N_27": "90",
      "iso_A_27": "150",

      "iso_28": "Nd-151",
      "iso_mass_28": "150.92383",
      "decay_type_28": "B-",
      "iso_half_28": "12.44 minutes",
      "iso_Z_28": "60",
      "iso_N_28": "91",
      "iso_A_28": "151",

      "iso_29": "Nd-152",
      "iso_mass_29": "151.92469",
      "decay_type_29": "B-",
      "iso_half_29": "11.0 minutes",
      "iso_Z_29": "60",
      "iso_N_29": "92",
      "iso_A_29": "152",

      "iso_30": "Nd-153",
      "iso_mass_30": "152.92772",
      "decay_type_30": "B-",
      "iso_half_30": "5.49 minutes",
      "iso_Z_30": "60",
      "iso_N_30": "93",
      "iso_A_30": "153",

      "iso_31": "Nd-154",
      "iso_mass_31": "153.92948",
      "decay_type_31": "B-",
      "iso_half_31": "3.37 minutes",
      "iso_Z_31": "60",
      "iso_N_31": "94",
      "iso_A_31": "154",

      "iso_32": "Nd-155",
      "iso_mass_32": "154.93293",
      "decay_type_32": "B-",
      "iso_half_32": "2.68 minutes",
      "iso_Z_32": "60",
      "iso_N_32": "95",
      "iso_A_32": "155",

      "iso_33": "Nd-156",
      "iso_mass_33": "155.93502",
      "decay_type_33": "B-",
      "iso_half_33": "1.08 minutes",
      "iso_Z_33": "60",
      "iso_N_33": "96",
      "iso_A_33": "156",

      "iso_34": "Nd-157",
      "iso_mass_34": "156.93903",
      "decay_type_34": "B-",
      "iso_half_34": "23.4 seconds",
      "iso_Z_34": "60",
      "iso_N_34": "97",
      "iso_A_34": "157",

      "iso_35": "Nd-158",
      "iso_mass_35": "157.94160",
      "decay_type_35": "B-",
      "iso_half_35": "10.6 seconds",
      "iso_Z_35": "60",
      "iso_N_35": "98",
      "iso_A_35": "158",

      "iso_36": "Nd-159",
      "iso_mass_36": "158.94609",
      "decay_type_36": "B-",
      "iso_half_36": "5.1 seconds",
      "iso_Z_36": "60",
      "iso_N_36": "99",
      "iso_A_36": "159",

      "iso_37": "Nd-160",
      "iso_mass_37": "159.94909",
      "decay_type_37": "B-",
      "iso_half_37": "2.9 seconds",
      "iso_Z_37": "60",
      "iso_N_37": "100",
      "iso_A_37": "160",

      "iso_38": "Nd-161",
      "iso_mass_38": "160.95388",
      "decay_type_38": "B-",
      "iso_half_38": "1.8 seconds",
      "iso_Z_38": "60",
      "iso_N_38": "101",
      "iso_A_38": "161",

      "iso_39": "Nd-162",
      "iso_mass_39": "161.95729",
      "decay_type_39": "B-",
      "iso_half_39": "1.3 seconds",
      "iso_Z_39": "60",
      "iso_N_39": "102",
      "iso_A_39": "162",

      "iso_40": "Nd-163",
      "iso_mass_40": "162.96300",
      "decay_type_40": "B-",
      "iso_half_40": "0.9 seconds",
      "iso_Z_40": "60",
      "iso_N_40": "103",
      "iso_A_40": "163",

      "iso_41": "Nd-164",
      "iso_mass_41": "163.96700",
      "decay_type_41": "B-",
      "iso_half_41": "0.6 seconds",
      "iso_Z_41": "60",
      "iso_N_41": "104",
      "iso_A_41": "164"
  }
]