[
  {
    "wikilink": "https://en.wikipedia.org/wiki/Neon",
    "link": "https://upload.wikimedia.org/wikipedia/commons/thumb/4/46/Neon_discharge_tube.jpg/1920px-Neon_discharge_tube.jpg",
    "description": "Neon is a chemical element with the symbol Ne and atomic number 10. It is a noble gas. Neon is a colorless, odorless, inert monatomic gas under standard conditions, with about two-thirds the density of air. It was discovered (along with krypton and xenon) in 1898 as one of the three residual rare inert elements remaining in dry air, after nitrogen, oxygen, argon and carbon dioxide were removed. Neon was the second of these three rare gases to be discovered and was immediately recognized as a new element from its bright red emission spectrum. The name neon is derived from the Greek word, νέον, neuter singular form of νέος (neos), meaning new. Neon is chemically inert, and no uncharged neon compounds are known. The compounds of neon currently known include ionic molecules, molecules held together by van der Waals forces and clathrates.",

    "element": "Neon",
    "short": "Ne",
    "element_year": "1898",
    "element_discovered_name": "William Ramsay",
    "element_group": "Noble Gases",
    "element_appearance": "Colorless Gas",
    "element_electrons": "10",
    "element_protons": "10",
    "element_neutron_common": "10",

    "radioactive": "No",
    "neutron_cross_sectional": "0.04 (b)",

    "electrical_type": "---",
    "resistivity": "---",
    "resistivity_mult": "---",
    "magnetic_type": "Diamagnetic",
    "superconducting_point": "---",

    "element_atomic_number": "10",
    "element_atomicmass": "20.1797 (u)",
    "element_density": "0.0009002 (g/cm^3)",
    "element_electronegativty": "---",
    "element_block": "p - block",
    "element_shells_electrons": "K2 L8 M0 N0 O0 P0 Q0 R0",
    "element_model": "https://upload.wikimedia.org/wikipedia/commons/thumb/3/3e/Electron_shell_010_Neon_-_no_label.svg/1280px-Electron_shell_010_Neon_-_no_label.svg.png",

    "element_boiling_kelvin": "27.104 (K)",
    "element_boiling_celsius": "−246.046 (°C)",
    "element_boiling_fahrenheit": "−410.883 (°F)",
    "element_melting_kelvin": "24.56 (K)",
    "element_melting_celsius": "−248.59 (°C)",
    "element_melting_fahrenheit": "−415.46 (°F)",

    "element_electron_config": "2s^2 2p^6",
    "element_ion_charge": "---",
    "element_ionization_energy1": "21.5646 (eV)",
    "element_ionization_energy2": "40.96328 (eV)",
    "element_ionization_energy3": "63.45 (eV)",
    "element_ionization_energy4": "97.12 (eV)",
    "element_ionization_energy5": "126.21 (eV)",
    "element_ionization_energy6": "157.93 (eV)",
    "element_ionization_energy7": "207.2759 (eV)",
    "element_ionization_energy8": "239.0989 (eV)",
    "element_ionization_energy9": "1195.8286 (eV)",
    "element_ionization_energy10": "1362.1995 (eV)",
    "element_atomic_radius_e": "160 (pm)",
    "element_atomic_radius": "38 (pm)",
    "element_covalent_radius": "69 (pm)",
    "element_van_der_waals": "154 (pm)",

    "element_phase": "Gas",
    "element_fusion_heat": "0.328 (kJ/mol)",
    "element_specific_heat_capacity": "1.030 J/(g·K)",
    "element_vaporization_heat": "1.71 (kJ/mol)",

    "oxidation_state_neg": "",
    "oxidation_state_pos": "",

    "speed_of_sound_gas": "206 (m/s) [0°C]",
    "speed_of_sound_liquid": "---",
    "speed_of_sound_solid": "---",

    "iso_1": "Ne-15",
    "iso_mass_1": "15.04317",
    "iso_half_1": "7.7×10^−22 (s)",
    "decay_type_1": "2p",
    "iso_Z_1": "10",
    "iso_N_1": "5",
    "iso_A_1": "15",

    "iso_2": "Ne-16",
    "iso_mass_2": "16.025751",
    "iso_half_2": "5.7×10^−21 (s)",
    "decay_type_2": "2p",
    "iso_Z_2": "10",
    "iso_N_2": "6",
    "iso_A_2": "16",

    "iso_3": "Ne-17",
    "iso_mass_3": "17.0177140",
    "iso_half_3": "109.2 (ms)",
    "decay_type_3": "B+",
    "iso_Z_3": "10",
    "iso_N_3": "7",
    "iso_A_3": "17",

    "iso_4": "Ne-18",
    "iso_mass_4": "18.0057087",
    "iso_half_4": "1.66420 (s)",
    "decay_type_4": "B+",
    "iso_Z_4": "10",
    "iso_N_4": "8",
    "iso_A_4": "18",
    
    "iso_5": "Ne-19",
    "iso_mass_5": "19.00188090",
    "iso_half_5": "17.274 (s)",
    "decay_type_5": "B+",
    "iso_Z_5": "10",
    "iso_N_5": "9",
    "iso_A_5": "19",

    "iso_6": "Ne-20",
    "iso_mass_6": "19.9924401762",
    "iso_half_6": "Stable",
    "decay_type_6": "stable",
    "iso_Z_6": "10",
    "iso_N_6": "10",
    "iso_A_6": "20",

    "iso_7": "Ne-21",
    "iso_mass_7": "20.99384669",
    "iso_half_7": "Stable",
    "decay_type_7": "stable",
    "iso_Z_7": "10",
    "iso_N_7": "11",
    "iso_A_7": "21",

    "iso_8": "Ne-22",
    "iso_mass_8": "21.991385110",
    "iso_half_8": "Stable",
    "decay_type_8": "stable",
    "iso_Z_8": "10",
    "iso_N_8": "12",
    "iso_A_8": "22",

    "iso_9": "Ne-23",
    "iso_mass_9": "22.99446690",
    "iso_half_9": "37.140 (s)",
    "decay_type_9": "B-",
    "iso_Z_9": "10",
    "iso_N_9": "13",
    "iso_A_9": "23",

    "iso_10": "Ne-24",
    "iso_mass_10": "23.9936106",
    "iso_half_10": "3.38 (min)",
    "decay_type_10": "B-",
    "iso_Z_10": "10",
    "iso_N_10": "14",
    "iso_A_10": "24",

    "iso_11": "Ne-25",
    "iso_mass_11": "24.997810",
    "iso_half_11": "602 (ms)",
    "decay_type_11": "B-",
    "iso_Z_11": "10",
    "iso_N_11": "15",
    "iso_A_11": "25",
    
    "iso_12": "Ne-26",
    "iso_mass_12": "26.000516",
    "iso_half_12": "197 (ms)",
    "decay_type_12": "B-",
    "iso_Z_12": "10",
    "iso_N_12": "16",
    "iso_A_12": "26",

    "iso_13": "Ne-27",
    "iso_mass_13": "27.00757",
    "iso_half_13": "31.5 (ms)",
    "decay_type_13": "B-",
    "iso_Z_13": "10",
    "iso_N_13": "17",
    "iso_A_13": "27",

    "iso_14": "Ne-28",
    "iso_mass_14": "28.01213",
    "iso_half_14": "20 (ms)",
    "decay_type_14": "B-",
    "iso_Z_14": "10",
    "iso_N_14": "18",
    "iso_A_14": "28",

    "iso_15": "Ne-29",
    "iso_mass_15": "29.01975",
    "iso_half_15": "14.7 (ms)",
    "decay_type_15": "B-",
    "iso_Z_15": "10",
    "iso_N_15": "19",
    "iso_A_15": "29",

    "iso_16": "Ne-30",
    "iso_mass_16": "30.02499",
    "iso_half_16": "7.22 (ms)",
    "decay_type_16": "B-",
    "iso_Z_16": "10",
    "iso_N_16": "20",
    "iso_A_16": "30",

    "iso_17": "Ne-31",
    "iso_mass_17": "31.03347",
    "iso_half_17": "3.4 (ms)",
    "decay_type_17": "B-",
    "iso_Z_17": "10",
    "iso_N_17": "21",
    "iso_A_17": "31",

    "iso_18": "Ne-32",
    "iso_mass_18": "32.03972",
    "iso_half_18": "3.5 (ms)",
    "decay_type_18": "B-",
    "iso_Z_18": "10",
    "iso_N_18": "22",
    "iso_A_18": "32",

    "iso_19": "Ne-33",
    "iso_mass_19": "---",
    "iso_half_19": "--- (ms)",
    "decay_type_19": "n",
    "iso_Z_19": "10",
    "iso_N_19": "23",
    "iso_A_19": "33",

    "iso_20": "Ne-34",
    "iso_mass_20": "34.05673",
    "iso_half_20": "1 (ms)",
    "decay_type_20": "B-",
    "iso_Z_20": "10",
    "iso_N_20": "24",
    "iso_A_20": "34"
    
  }
]