[
  {
"element_code": "AAMiN9sPPcVc7LS85ZZ",
    "wikilink": "https://en.wikipedia.org/wiki/Neptunium",
    "link": "http://www.chemistrylearner.com/wp-content/uploads/2018/02/Neptunium-Element.jpg",
    "description": "Neptunium is a chemical element with the symbol Np and atomic number 93. A radioactive actinide metal, neptunium is the first transuranic element. Its position in the periodic table just after uranium, named after the planet Uranus, led to it being named after Neptune, the next planet beyond Uranus. A neptunium atom has 93 protons and 93 electrons, of which seven are valence electrons. Neptunium metal is silvery and tarnishes when exposed to air. The element occurs in three allotropic forms and it normally exhibits five oxidation states, ranging from +3 to +7. It is radioactive, poisonous, pyrophoric, and capable of accumulating in bones, which makes the handling of neptunium dangerous.",

    "element": "Neptunium",
    "short": "Np",
    "element_year": "1940",
    "element_discovered_name": "Edwin McMillan",
    "element_group": "Actinide",
    "element_appearance": "Silvery Metallic",
    "element_electrons": "93",
    "element_protons": "93",
    "element_neutron_common": "144",

    "radioactive": "Yes",
    "neutron_cross_sectional": "180 (b)",

    "electrical_type": "Conductor",
    "resistivity": "1.220 μΩm",
    "resistivity_mult": "0.000001",
    "magnetic_type": "---",
    "superconducting_point": "---",

    "element_atomic_number": "93",
    "element_atomicmass": "237 (u)",
    "element_density": "20.2  (g/cm^3)",
    "element_electronegativty": "1.36",
    "element_block": "f - block",
    "element_shells_electrons": "K2 L8 M18 N32 O22 P9 Q2 R0",
    "element_model": "https://upload.wikimedia.org/wikipedia/commons/thumb/9/9a/Electron_shell_093_Neptunium_-_no_label.svg/800px-Electron_shell_093_Neptunium_-_no_label.svg.png",

    "element_boiling_kelvin": "4447 (K)",
    "element_boiling_celsius": "4174 (°C)",
    "element_boiling_fahrenheit": "7545 (°F)",
    "element_melting_kelvin": "912 (K)",
    "element_melting_celsius": "639 (°C)",
    "element_melting_fahrenheit": "1182 (°F)",

    "element_electron_config": "5f^4, 6d^1, 7s^2",
    "element_ion_charge": "Np^5+",
    "element_ionization_energy1": "6.2657 (eV)",
    "element_atomic_radius_e": "175 (pm)",
    "element_atomic_radius": "--- (pm)",
    "element_covalent_radius": "---",
    "element_van_der_waals": "--- (pm)",

    "element_phase": "Solid",
    "element_fusion_heat": "3.20 (kJ/mol)",
    "element_specific_heat_capacity": "0.12 J/(g·K)",
    "element_vaporization_heat": "336 (kJ/mol)",

    "oxidation_state_neg": "",
    "oxidation_state_pos": "2 3 4 5 6 7",

    "cas_number": "7439-99-8",
    "eg_number": "231-108-8",
    "health": 3,
    "flammability": 1,
    "instability": 1,
    "special": "Radioactive",

      "iso_1": "Neptunium-219",
      "iso_mass_1": "219",
      "decay_type_1": "α",
      "iso_half_1": "0.15 milliseconds",
      "iso_Z_1": "93",
      "iso_N_1": "126",
      "iso_A_1": "219",

      "iso_2": "Neptunium-220",
      "iso_mass_2": "220",
      "decay_type_2": "α",
      "iso_half_2": "25 microseconds",
      "iso_Z_2": "93",
      "iso_N_2": "127",
      "iso_A_2": "220",

      "iso_3": "Neptunium-222",
      "iso_mass_3": "222",
      "decay_type_3": "α",
      "iso_half_3": "380 nanoseconds",
      "iso_Z_3": "93",
      "iso_N_3": "129",
      "iso_A_3": "222",

      "iso_4": "Neptunium-223",
      "iso_mass_4": "223",
      "decay_type_4": "α",
      "iso_half_4": "2.15 microseconds",
      "iso_Z_4": "93",
      "iso_N_4": "130",
      "iso_A_4": "223",

      "iso_5": "Neptunium-224",
      "iso_mass_5": "224",
      "decay_type_5": "α",
      "iso_half_5": "38 microseconds",
      "iso_Z_5": "93",
      "iso_N_5": "131",
      "iso_A_5": "224",

      "iso_6": "Neptunium-225",
      "iso_mass_6": "225",
      "decay_type_6": "α",
      "iso_half_6": "6 milliseconds",
      "iso_Z_6": "93",
      "iso_N_6": "132",
      "iso_A_6": "225",

      "iso_7": "Neptunium-226",
      "iso_mass_7": "226",
      "decay_type_7": "α",
      "iso_half_7": "35 milliseconds",
      "iso_Z_7": "93",
      "iso_N_7": "133",
      "iso_A_7": "226",

      "iso_8": "Neptunium-227",
      "iso_mass_8": "227",
      "decay_type_8": "α",
      "iso_half_8": "510 milliseconds",
      "iso_Z_8": "93",
      "iso_N_8": "134",
      "iso_A_8": "227",

      "iso_9": "Neptunium-228",
      "iso_mass_9": "228",
      "decay_type_9": "B+",
      "iso_half_9": "61.4 seconds",
      "iso_Z_9": "93",
      "iso_N_9": "135",
      "iso_A_9": "228",

      "iso_10": "Neptunium-229",
      "iso_mass_10": "229",
      "decay_type_10": "B+",
      "iso_half_10": "4 minutes",
      "iso_Z_10": "93",
      "iso_N_10": "136",
      "iso_A_10": "229",

      "iso_11": "Neptunium-230",
      "iso_mass_11": "230",
      "decay_type_11": "B+",
      "iso_half_11": "4.6 minutes",
      "iso_Z_11": "93",
      "iso_N_11": "137",
      "iso_A_11": "230",

      "iso_12": "Neptunium-231",
      "iso_mass_12": "231",
      "decay_type_12": "B+",
      "iso_half_12": "48.8 minutes",
      "iso_Z_12": "93",
      "iso_N_12": "138",
      "iso_A_12": "231",

      "iso_13": "Neptunium-232",
      "iso_mass_13": "232",
      "decay_type_13": "B+",
      "iso_half_13": "14.7 minutes",
      "iso_Z_13": "93",
      "iso_N_13": "139",
      "iso_A_13": "232",

      "iso_14": "Neptunium-233",
      "iso_mass_14": "233",
      "decay_type_14": "B+",
      "iso_half_14": "36.2 minutes",
      "iso_Z_14": "93",
      "iso_N_14": "140",
      "iso_A_14": "233",

      "iso_15": "Neptunium-234",
      "iso_mass_15": "234",
      "decay_type_15": "B+",
      "iso_half_15": "4.4 days",
      "iso_Z_15": "93",
      "iso_N_15": "141",
      "iso_A_15": "234",

      "iso_16": "Neptunium-235",
      "iso_mass_16": "235",
      "decay_type_16": "EC",
      "iso_half_16": "396.1 days",
      "iso_Z_16": "93",
      "iso_N_16": "142",
      "iso_A_16": "235",

      "iso_17": "Neptunium-236",
      "iso_mass_17": "236",
      "decay_type_17": "B-",
      "iso_half_17": "154000 years",
      "iso_Z_17": "93",
      "iso_N_17": "143",
      "iso_A_17": "236",

      "iso_18": "Neptunium-237",
      "iso_mass_18": "237",
      "decay_type_18": "α",
      "iso_half_18": "2140000 years",
      "iso_Z_18": "93",
      "iso_N_18": "144",
      "iso_A_18": "237",

      "iso_19": "Neptunium-238",
      "iso_mass_19": "238",
      "decay_type_19": "B-",
      "iso_half_19": "2.117 days",
      "iso_Z_19": "93",
      "iso_N_19": "145",
      "iso_A_19": "238",

      "iso_20": "Neptunium-239",
      "iso_mass_20": "239",
      "decay_type_20": "B-",
      "iso_half_20": "2.356 days",
      "iso_Z_20": "93",
      "iso_N_20": "146",
      "iso_A_20": "239",

      "iso_21": "Neptunium-240",
      "iso_mass_21": "240",
      "decay_type_21": "B-",
      "iso_half_21": "61 minutes",
      "iso_Z_21": "93",
      "iso_N_21": "147",
      "iso_A_21": "240",

      "iso_22": "Neptunium-241",
      "iso_mass_22": "241",
      "decay_type_22": "B-",
      "iso_half_22": "13.9 minutes",
      "iso_Z_22": "93",
      "iso_N_22": "148",
      "iso_A_22": "241",

      "iso_23": "Neptunium-242",
      "iso_mass_23": "242",
      "decay_type_23": "B-",
      "iso_half_23": "2.117 minutes",
      "iso_Z_23": "93",
      "iso_N_23": "149",
      "iso_A_23": "242",

      "iso_24": "Neptunium-243",
      "iso_mass_24": "243",
      "decay_type_24": "B-",
      "iso_half_24": "4.956 minutes",
      "iso_Z_24": "93",
      "iso_N_24": "150",
      "iso_A_24": "243",

      "iso_25": "Neptunium-244",
      "iso_mass_25": "244",
      "decay_type_25": "B-",
      "iso_half_25": "2.29 minutes",
      "iso_Z_25": "93",
      "iso_N_25": "151",
      "iso_A_25": "244"
  }
]