[
  {
    "wikilink": "https://en.wikipedia.org/wiki/Neptunium",
    "link": "http://www.chemistrylearner.com/wp-content/uploads/2018/02/Neptunium-Element.jpg",
    "description": "Neptunium is a chemical element with the symbol Np and atomic number 93. A radioactive actinide metal, neptunium is the first transuranic element. Its position in the periodic table just after uranium, named after the planet Uranus, led to it being named after Neptune, the next planet beyond Uranus. A neptunium atom has 93 protons and 93 electrons, of which seven are valence electrons. Neptunium metal is silvery and tarnishes when exposed to air. The element occurs in three allotropic forms and it normally exhibits five oxidation states, ranging from +3 to +7. It is radioactive, poisonous, pyrophoric, and capable of accumulating in bones, which makes the handling of neptunium dangerous.",

    "element": "Neptunium",
    "short": "Np",
    "element_year": "1940",
    "element_discovered_name": "Edwin McMillan",
    "element_group": "Actinide",
    "element_appearance": "Silvery Metallic",
    "element_electrons": "93",
    "element_protons": "93",
    "element_neutron_common": "144",

    "radioactive": "Yes",
    "neutron_cross_sectional": "180 (b)",

    "electrical_type": "Conductor",
    "resistivity": "1.2",
    "resistivity_mult": "0.000001",
    "magnetic_type": "---",
    "superconducting_point": "---",

    "element_atomic_number": "93",
    "element_atomicmass": "237 (u)",
    "element_density": "20.2  (g/cm^3)",
    "element_electronegativty": "1.36",
    "element_block": "f - block",
    "element_shells_electrons": "K2 L8 M18 N32 O22 P9 Q2 R0",
    "element_model": "https://upload.wikimedia.org/wikipedia/commons/thumb/9/9a/Electron_shell_093_Neptunium_-_no_label.svg/800px-Electron_shell_093_Neptunium_-_no_label.svg.png",

    "element_boiling_kelvin": "4447 (K)",
    "element_boiling_celsius": "4174 (°C)",
    "element_boiling_fahrenheit": "7545 (°F)",
    "element_melting_kelvin": "912 (K)",
    "element_melting_celsius": "639 (°C)",
    "element_melting_fahrenheit": "1182 (°F)",

    "element_electron_config": "5f^4, 6d^1, 7s^2",
    "element_ion_charge": "Np^5+",
    "element_ionization_energy": "6.2657 (eV)",
    "element_atomic_radius_e": "175 (pm)",
    "element_atomic_radius": "--- (pm)",
    "element_covalent_radius": "---",
    "element_van_der_waals": "--- (pm)",

    "element_phase": "Solid",
    "element_fusion_heat": "3.20 (kJ/mol)",
    "element_specific_heat_capacity": "0.12 J/(g·K)",
    "element_vaporization_heat": "336 (kJ/mol)",

    "oxidation_state_neg": "",
    "oxidation_state_pos": "2 3 4 5 6 7",

    "iso_1": "Np-234",
    "iso_mass_1": "234.042895",
    "iso_half_1": "4.4 (days)",
    "iso_Z_1": "93",
    "iso_N_1": "141",
    "iso_A_1": "234",

    "iso_2": "Np-235",
    "iso_mass_2": "235.0440633",
    "iso_half_2": "396.1 (days)",
    "iso_Z_2": "93",
    "iso_N_2": "142",
    "iso_A_2": "235",

    "iso_3": "Np-236",
    "iso_mass_3": "236.04657",
    "iso_half_3": "1.54×10^5 (years)",
    "iso_Z_3": "93",
    "iso_N_3": "143",
    "iso_A_3": "236",

    "iso_4": "Np-237",
    "iso_mass_4": "237.0481734",
    "iso_half_4": "2.144×10^6 (days)",
    "iso_Z_4": "93",
    "iso_N_4": "144",
    "iso_A_4": "237",

    "iso_5": "Np-238",
    "iso_mass_5": "238.0509464",
    "iso_half_5": "2.117 (days)",
    "iso_Z_5": "93",
    "iso_N_5": "145",
    "iso_A_5": "238",

    "iso_6": "Np-239",
    "iso_mass_6": "239.0529390",
    "iso_half_6": "2.356 (days)",
    "iso_Z_6": "93",
    "iso_N_6": "146",
    "iso_A_6": "239"
  }
]