[
  {
"element_code": "AATkPivreNW6gPyPzZZ",
    "wikilink": "https://en.wikipedia.org/wiki/Nihonium",
    "link": "empty",
    "description": "Nihonium is a synthetic chemical element with the symbol Nh and atomic number 113. It is extremely radioactive; its most stable known isotope, nihonium-286, has a half-life of about 10 seconds. In the periodic table, nihonium is a transactinide element in the p-block. It is a member of period 7 and group 13 (boron group).",

    "element": "Nihonium",
    "short": "Nh",
    "element_year": "---",
    "element_discovered_name": "---",
    "element_group": "Transition Metals",
    "element_appearance": "---",
    "element_electrons": "---",
    "element_protons": "---",
    "element_neutron_common": "---",

    "radioactive": "Yes",
    "neutron_cross_sectional": "--- (b)",

    "electrical_type": "---",
    "resistivity": "---",
    "resistivity_mult": "---",
    "magnetic_type": "---",
    "superconducting_point": "---",

    "element_atomic_number": "113",
    "element_atomicmass": "286 (u)",
    "element_density": "--- (g/cm^3)",
    "element_electronegativty": "---",
    "element_block": "p - block",
    "element_shells_electrons": "K2 L8 M18 N32 O32 P18 Q3 R0",
    "element_model": "https://upload.wikimedia.org/wikipedia/commons/thumb/8/88/Electron_shell_113_Nihonium_-_no_label.svg/800px-Electron_shell_113_Nihonium_-_no_label.svg.png",

    "element_boiling_kelvin": "--- (K)",
    "element_boiling_celsius": "--- (°C)",
    "element_boiling_fahrenheit": "--- (°F)",
    "element_melting_kelvin": "--- (K)",
    "element_melting_celsius": "--- (°C)",
    "element_melting_fahrenheit": "--- (°F)",

    "element_electron_config": "5f^14, 6d^10, 7s^2, 7p^1",
    "element_ion_charge": "---",
    "element_ionization_energy1": "---",
    "element_atomic_radius_e": "--- (pm)",
    "element_atomic_radius": "--- (pm)",
    "element_covalent_radius": "---",
    "element_van_der_waals": "--- (pm)",

    "element_phase": "Solid",
    "element_fusion_heat": "--- (kJ/mol)",
    "element_specific_heat_capacity": "--- J/(g·K)",
    "element_vaporization_heat": "--- (kJ/mol)",

    "iso_1": "--",
    "iso_mass_1": "--",
    "iso_half_1": "--",
    "iso_Z_1": "--",
    "iso_N_1": "--",
    "iso_A_1": "--"
  }
]