[
  {
    "element_code": "AAAaMoDC8vA5KGQUvZZ",
    "wikilink": "https://en.wikipedia.org/wiki/Nitrogen",
    "link": "https://4.imimg.com/data4/DL/IG/MY-3137311/liquid-nitrogen-gas-500x500.jpg",
    "description": "Nitrogen is the chemical element with the symbol N and atomic number 7. It was first discovered and isolated by Scottish physician Daniel Rutherford in 1772. Although Carl Wilhelm Scheele and Henry Cavendish had independently done so at about the same time, Rutherford is generally accorded the credit because his work was published first. The name nitrogène was suggested by French chemist Jean-Antoine-Claude Chaptal in 1790 when it was found that nitrogen was present in nitric acid and nitrates. Antoine Lavoisier suggested instead the name azote, from the Greek ἀζωτικός \"no life\", as it is an asphyxiant gas; this name is instead used in many languages, such as French, Italian, Russian, Romanian and Turkish, and appears in the English names of some nitrogen compounds such as hydrazine, azides and azo compounds.",
    "element": "Nitrogen",
    "short": "N",
    "element_year": "1772",
    "element_discovered_name": "Daniel Rutherford",
    "element_group": "Other Nonmetal",
    "element_appearance": "Colorless gas, solid or liquid",
    "element_electrons": "7",
    "element_protons": "7",
    "element_neutron_common": "7",
    "radioactive": "No",
    "neutron_cross_sectional": "1.91 (b)",
    "electrical_type": "---",
    "resistivity": "---",
    "resistivity_mult": "---",
    "magnetic_type": "Diamagnetic",
    "superconducting_point": "---",
    "element_atomic_number": "7",
    "element_atomicmass": "14.007 (u)",
    "element_density": "0.001251 (g/cm^3)",
    "element_electronegativty": "3.04",
    "element_block": "p - block",
    "element_shells_electrons": "K2 L5 M0 N0 O0 P0 Q0 R0",
    "element_model": "https://upload.wikimedia.org/wikipedia/commons/thumb/d/dc/Electron_shell_007_Nitrogen_%28diatomic_nonmetal%29_-_no_label.svg/1280px-Electron_shell_007_Nitrogen_%28diatomic_nonmetal%29_-_no_label.svg.png",
    "element_boiling_kelvin": "77.355 (K)",
    "element_boiling_celsius": "−195.795 (°C)",
    "element_boiling_fahrenheit": "−320.431 (°F)",
    "element_melting_kelvin": "63.15 (K)",
    "element_melting_celsius": "−210.00 (°C)",
    "element_melting_fahrenheit": "−346.00 (°F)",
    "element_electron_config": "2s^2 2p^3",
    "element_ion_charge": "N^3-",
    "element_ionization_energy1": "14.53414 (eV)",
    "element_ionization_energy2": "29.6013 (eV)",
    "element_ionization_energy3": "47.44924 (eV)",
    "element_ionization_energy4": "77.4735 (eV)",
    "element_ionization_energy5": "97.8902 (eV)",
    "element_ionization_energy6": "552.0718 (eV)",
    "element_ionization_energy7": "667.046 (eV)",
    "element_atomic_radius_e": "65 (pm)",
    "element_atomic_radius": "56 (pm)",
    "element_covalent_radius": "75 (pm)",
    "element_van_der_waals": "155 (pm)",
    "element_phase": "Gas",
    "element_fusion_heat": "0.71 (N2) (kJ/mol)",
    "element_specific_heat_capacity": "1.040 (N2) J/(g·K)",
    "element_vaporization_heat": "5.57 (N2) (kJ/mol)",
    "oxidation_state_neg": "3 2 1",
    "oxidation_state_pos": "1 2 3 4 5",
    "speed_of_sound_gas": "353 (m/s) [27°C]",
    "speed_of_sound_liquid": "939 (m/s) [-198.5°C]",
    "speed_of_sound_solid": "---",
    "earth_crust": "19.00",
    "earth_soils": "1000",
    "urban_soils": "10,000",
    "sea_water": "1.6 × 10^4",
    "crustal_rocks": "20",
    "sun": "3.1 × 10^6",
    "solar_system": "3.1 × 10^6",
    "iso_1": "N-10",
    "iso_mass_1": "10.04165",
    "iso_half_1": "200×10^−24 (s)",
    "decay_type_1": "p",
    "iso_Z_1": "7",
    "iso_N_1": "3",
    "iso_A_1": "10",
    "iso_2": "N-11",
    "iso_mass_2": "11.02609",
    "iso_half_2": "550×10^−24 (s)",
    "decay_type_2": "p",
    "iso_Z_2": "7",
    "iso_N_2": "4",
    "iso_A_2": "11",
    "iso_3": "N-12",
    "iso_mass_3": "12.0186132",
    "iso_half_3": "11.000 (ms)",
    "decay_type_3": "B+",
    "iso_Z_3": "7",
    "iso_N_3": "5",
    "iso_A_3": "12",
    "iso_4": "N-13",
    "iso_mass_4": "13.00573861",
    "iso_half_4": "9.965 (min)",
    "decay_type_4": "B+",
    "iso_Z_4": "7",
    "iso_N_4": "6",
    "iso_A_4": "13",
    "iso_5": "N-14",
    "iso_mass_5": "14.00307400446",
    "iso_half_5": "Stable",
    "decay_type_5": "stable",
    "iso_Z_5": "7",
    "iso_N_5": "7",
    "iso_A_5": "14",
    "iso_6": "N-15",
    "iso_mass_6": "15.0001088989",
    "iso_half_6": "Stable",
    "decay_type_6": "stable",
    "iso_Z_6": "7",
    "iso_N_6": "8",
    "iso_A_6": "15",
    "iso_7": "N-16",
    "iso_mass_7": "16.0061019",
    "iso_half_7": "7.13 (s)",
    "decay_type_7": "B-",
    "iso_Z_7": "7",
    "iso_N_7": "9",
    "iso_A_7": "16",
    "iso_8": "N-17",
    "iso_mass_8": "17.008449",
    "iso_half_8": "4.173 (s)",
    "decay_type_8": "B-",
    "iso_Z_8": "7",
    "iso_N_8": "10",
    "iso_A_8": "17",
    "iso_9": "N-18",
    "iso_mass_9": "18.014078",
    "iso_half_9": "0.6192 (s)",
    "decay_type_9": "B-",
    "iso_Z_9": "7",
    "iso_N_9": "11",
    "iso_A_9": "18",
    "iso_10": "N-19",
    "iso_mass_10": "19.017022",
    "iso_half_10": "336 (ms)",
    "decay_type_10": "B-",
    "iso_Z_10": "7",
    "iso_N_10": "12",
    "iso_A_10": "19",
    "iso_11": "N-20",
    "iso_mass_11": "20.02337",
    "iso_half_11": "136 (ms)",
    "decay_type_11": "B-",
    "iso_Z_11": "7",
    "iso_N_11": "13",
    "iso_A_11": "20",
    "iso_12": "N-21",
    "iso_mass_12": "21.02709",
    "iso_half_12": "84 (ms)",
    "decay_type_12": "B-",
    "iso_Z_12": "7",
    "iso_N_12": "14",
    "iso_A_12": "21",
    "iso_13": "N-22",
    "iso_mass_13": "22.03410",
    "iso_half_13": "23 (ms)",
    "decay_type_13": "B-",
    "iso_Z_13": "7",
    "iso_N_13": "15",
    "iso_A_13": "22",
    "iso_14": "N-23",
    "iso_mass_14": "23.03942",
    "iso_half_14": "13.9 (ms)",
    "decay_type_14": "B-",
    "iso_Z_14": "7",
    "iso_N_14": "16",
    "iso_A_14": "23",
    "iso_15": "N-24",
    "iso_mass_15": "24.05039",
    "iso_half_15": "<52 (ns)",
    "decay_type_15": "n",
    "iso_Z_15": "7",
    "iso_N_15": "17",
    "iso_A_15": "24",
    "iso_16": "N-25",
    "iso_mass_16": "25.06010",
    "iso_half_16": "<260 (ns)",
    "decay_type_16": "n",
    "iso_Z_16": "7",
    "iso_N_16": "18",
    "iso_A_16": "25",
    "crystal_structure": "Hexagonal",
    "lattice_constants": {
      "a": "5.66 Å",
      "c": "9.14 Å"
    },
    "debye_temperature": {
      "low_temperature_limit": "90 K",
      "room_temperature": "80 K"
    }
  }
]