[
  {
"element_code": "AA5pdeoFjXV52rBZRZZ",
    "wikilink": "https://en.wikipedia.org/wiki/Nobelium",
    "link": "empty",
    "description": "Nobelium is a synthetic chemical element with the symbol No and atomic number 102. It is named in honor of Alfred Nobel, the inventor of dynamite and benefactor of science. A radioactive metal, it is the tenth transuranic element and is the penultimate member of the actinide series. Like all elements with atomic number over 100, nobelium can only be produced in particle accelerators by bombarding lighter elements with charged particles. A total of twelve nobelium isotopes are known to exist; the most stable is No-259 with a half-life of 58 minutes, but the shorter-lived No-255 (half-life 3.1 minutes) is most commonly used in chemistry because it can be produced on a larger scale.",

    "element": "Nobelium",
    "short": "No",
    "element_year": "1966",
    "element_discovered_name": "Joint Institute for Nuclear Research",
    "element_group": "Actinide",
    "element_appearance": "---",
    "element_electrons": "102",
    "element_protons": "102",
    "element_neutron_common": "157",

    "radioactive": "Yes",
    "neutron_cross_sectional": "767 (b)",

    "electrical_type": "---",
    "resistivity": "---",
    "resistivity_mult": "---",
    "magnetic_type": "---",
    "superconducting_point": "---",

    "element_atomic_number": "102",
    "element_atomicmass": "259 (u)",
    "element_density": "9.9  (g/cm^3)",
    "element_electronegativty": "1.3",
    "element_block": "f - block",
    "element_shells_electrons": "K2 L8 M18 N32 O32 P8 Q2 R0",
    "element_model": "https://upload.wikimedia.org/wikipedia/commons/thumb/2/25/Electron_shell_102_Nobelium_-_no_label.svg/800px-Electron_shell_102_Nobelium_-_no_label.svg.png",

    "element_boiling_kelvin": "--- (K)",
    "element_boiling_celsius": "--- (°C)",
    "element_boiling_fahrenheit": "--- (°F)",
    "element_melting_kelvin": "1100 (K)",
    "element_melting_celsius": "827 (°C)",
    "element_melting_fahrenheit": "1521 (°F)",

    "element_electron_config": "5f^14, 7s^2",
    "element_ion_charge": "No^2+, No^3+",
    "element_ionization_energy1": "6.65 (eV)",
    "element_atomic_radius_e": "--- (pm)",
    "element_atomic_radius": "--- (pm)",
    "element_covalent_radius": "---",
    "element_van_der_waals": "--- (pm)",

    "element_phase": "Solid",
    "element_fusion_heat": "--- (kJ/mol)",
    "element_specific_heat_capacity": "--- J/(g·K)",
    "element_vaporization_heat": "--- (kJ/mol)",

    "oxidation_state_neg": "",
    "oxidation_state_pos": "2 3",

    "cas_number": "10028-14-5",
    "eg_number": "233-030-5",

      "iso_1": "Nobelium-248",
      "iso_mass_1": "248",
      "decay_type_1": "SF",
      "iso_half_1": "<2 microseconds",
      "iso_Z_1": "102",
      "iso_N_1": "146",
      "iso_A_1": "248",

      "iso_2": "Nobelium-249",
      "iso_mass_2": "249",
      "decay_type_2": "α",
      "iso_half_2": "38.3 milliseconds",
      "iso_Z_2": "102",
      "iso_N_2": "147",
      "iso_A_2": "249",

      "iso_3": "Nobelium-250",
      "iso_mass_3": "250",
      "decay_type_3": "SF",
      "iso_half_3": "4 microseconds",
      "iso_Z_3": "102",
      "iso_N_3": "148",
      "iso_A_3": "250",

      "iso_4": "Nobelium-251",
      "iso_mass_4": "251",
      "decay_type_4": "α",
      "iso_half_4": "0.8 seconds",
      "iso_Z_4": "102",
      "iso_N_4": "149",
      "iso_A_4": "251",

      "iso_5": "Nobelium-252",
      "iso_mass_5": "252",
      "decay_type_5": "α",
      "iso_half_5": "2.42 seconds",
      "iso_Z_5": "102",
      "iso_N_5": "150",
      "iso_A_5": "252",

      "iso_6": "Nobelium-253",
      "iso_mass_6": "253",
      "decay_type_6": "α",
      "iso_half_6": "1.57 minutes",
      "iso_Z_6": "102",
      "iso_N_6": "151",
      "iso_A_6": "253",

      "iso_7": "Nobelium-254",
      "iso_mass_7": "254",
      "decay_type_7": "α",
      "iso_half_7": "51.2 seconds",
      "iso_Z_7": "102",
      "iso_N_7": "152",
      "iso_A_7": "254",

      "iso_8": "Nobelium-255",
      "iso_mass_8": "255",
      "decay_type_8": "α",
      "iso_half_8": "3.52 minutes",
      "iso_Z_8": "102",
      "iso_N_8": "153",
      "iso_A_8": "255",

      "iso_9": "Nobelium-256",
      "iso_mass_9": "256",
      "decay_type_9": "α",
      "iso_half_9": "2.91 seconds",
      "iso_Z_9": "102",
      "iso_N_9": "154",
      "iso_A_9": "256",

      "iso_10": "Nobelium-257",
      "iso_mass_10": "257",
      "decay_type_10": "α",
      "iso_half_10": "24.5 seconds",
      "iso_Z_10": "102",
      "iso_N_10": "155",
      "iso_A_10": "257",

      "iso_11": "Nobelium-258",
      "iso_mass_11": "258",
      "decay_type_11": "SF",
      "iso_half_11": "1.23 milliseconds",
      "iso_Z_11": "102",
      "iso_N_11": "156",
      "iso_A_11": "258",

      "iso_12": "Nobelium-259",
      "iso_mass_12": "259",
      "decay_type_12": "α",
      "iso_half_12": "58 minutes",
      "iso_Z_12": "102",
      "iso_N_12": "157",
      "iso_A_12": "259",

      "iso_13": "Nobelium-260",
      "iso_mass_13": "260",
      "decay_type_13": "SF",
      "iso_half_13": "106 milliseconds",
      "iso_Z_13": "102",
      "iso_N_13": "158",
      "iso_A_13": "260",

      "iso_14": "Nobelium-262",
      "iso_mass_14": "262",
      "decay_type_14": "SF",
      "iso_half_14": "5 milliseconds",
      "iso_Z_14": "102",
      "iso_N_14": "160",
      "iso_A_14": "262"
  }
]