[
  {
    "element_code": "AAzWPpmFtpCCGq87bZZ",
    "wikilink": "https://en.wikipedia.org/wiki/Platinum",
    "link": "https://upload.wikimedia.org/wikipedia/commons/thumb/6/68/Platinum_crystals.jpg/800px-Platinum_crystals.jpg",
    "description": "Platinum is a chemical element with the symbol Pt and atomic number 78. It is a dense, malleable, ductile, highly unreactive, precious, silverish-white transition metal. Its name is derived from the Spanish term platino, meaning \"little silver\".",
    "element": "Platinum",
    "short": "Pt",
    "element_year": "1735",
    "element_discovered_name": "Antonio de Ulloa",
    "element_group": "Transition Metals",
    "element_appearance": "Silvery white",
    "element_electrons": "78",
    "element_protons": "78",
    "element_neutron_common": "117",
    "radioactive": "No",
    "neutron_cross_sectional": "0.96 (b)",
    "electrical_type": "Conductor",
    "resistivity": "105 nΩm",
    "resistivity_mult": "0.0000001",
    "magnetic_type": "Paramagnetic",
    "superconducting_point": "---",
    "element_atomic_number": "78",
    "element_atomicmass": "195.084 (u)",
    "element_density": "21.45 (g/cm^3)",
    "element_electronegativty": "2.28",
    "element_block": "d - block",
    "element_shells_electrons": "K2 L8 M18 N32 O17 P1 Q0 R0",
    "element_model": "https://upload.wikimedia.org/wikipedia/commons/thumb/a/aa/Electron_shell_078_Platinum_-_no_label.svg/800px-Electron_shell_078_Platinum_-_no_label.svg.png",
    "element_boiling_kelvin": "4098 (K)",
    "element_boiling_celsius": "3825 (°C)",
    "element_boiling_fahrenheit": "6917 (°F)",
    "element_melting_kelvin": "2041.4 (K)",
    "element_melting_celsius": "1768.3 (°C)",
    "element_melting_fahrenheit": "3214.9 (°F)",
    "element_electron_config": "4f^14, 5d^9, 6s^1",
    "element_ion_charge": "Pt^2+, Pt^4+",
    "element_ionization_energy1": "8.9587 (eV)",
    "element_ionization_energy2": "18.563 (eV)",
    "element_ionization_energy3": "28 (eV)",
    "element_atomic_radius_e": "135 (pm)",
    "element_atomic_radius": "177 (pm)",
    "element_covalent_radius": "128 (pm)",
    "element_van_der_waals": "175 (pm)",
    "element_phase": "Solid",
    "element_fusion_heat": "22.17 (kJ/mol)",
    "element_specific_heat_capacity": "0.133 J/(g·K)",
    "element_vaporization_heat": "510 (kJ/mol)",
    "oxidation_state_neg": "3 2 1 0",
    "oxidation_state_pos": "1 2 3 4 5 6",
    "speed_of_sound_gas": "---",
    "speed_of_sound_liquid": "---",
    "speed_of_sound_solid": "2800 (m/s) [room temperature]",
    "mohs_hardness": "4.6-5.0",
    "vickers_hardness": "400-549 (MPa)",
    "brinell_hardness": "310-500 (MPa)",
    "young_modulus": "168 (GPa)",
    "poisson_ratio": "0.38",
    "bulk_modulus": "230 (GPa)",
    "shear_modulus": "61 (GPa)",
    "sun": "1.8",
    "solar_system": "1.34",
    "cas_number": "7440-06-4",
    "eg_number": "231-116-1",
    "health": 1,
    "flammability": 2,
    "instability": 0,
    "iso_1": "Pt-166",
    "iso_mass_1": "165.99492",
    "decay_type_1": "α",
    "iso_half_1": "294 μs",
    "iso_Z_1": "78",
    "iso_N_1": "88",
    "iso_A_1": "166",
    "iso_2": "Pt-167",
    "iso_mass_2": "166.99290",
    "decay_type_2": "α",
    "iso_half_2": "920 μs",
    "iso_Z_2": "78",
    "iso_N_2": "89",
    "iso_A_2": "167",
    "iso_3": "Pt-168",
    "iso_mass_3": "167.98818",
    "decay_type_3": "α",
    "iso_half_3": "2.02 ms",
    "iso_Z_3": "78",
    "iso_N_3": "90",
    "iso_A_3": "168",
    "iso_4": "Pt-169",
    "iso_mass_4": "168.98657",
    "decay_type_4": "α",
    "iso_half_4": "6.99 ms",
    "iso_Z_4": "78",
    "iso_N_4": "91",
    "iso_A_4": "169",
    "iso_5": "Pt-170",
    "iso_mass_5": "169.982502",
    "decay_type_5": "α",
    "iso_half_5": "13.93 ms",
    "iso_Z_5": "78",
    "iso_N_5": "92",
    "iso_A_5": "170",
    "iso_6": "Pt-171",
    "iso_mass_6": "170.98125",
    "decay_type_6": "α",
    "iso_half_6": "45.5 ms",
    "iso_Z_6": "78",
    "iso_N_6": "93",
    "iso_A_6": "171",
    "iso_7": "Pt-172",
    "iso_mass_7": "171.977341",
    "decay_type_7": "α",
    "iso_half_7": "97.6 ms",
    "iso_Z_7": "78",
    "iso_N_7": "94",
    "iso_A_7": "172",
    "iso_8": "Pt-173",
    "iso_mass_8": "172.97644",
    "decay_type_8": "α",
    "iso_half_8": "382 ms",
    "iso_Z_8": "78",
    "iso_N_8": "95",
    "iso_A_8": "173",
    "iso_9": "Pt-174",
    "iso_mass_9": "173.972820",
    "decay_type_9": "α",
    "iso_half_9": "862 ms",
    "iso_Z_9": "78",
    "iso_N_9": "96",
    "iso_A_9": "174",
    "iso_10": "Pt-175",
    "iso_mass_10": "174.972395",
    "decay_type_10": "α",
    "iso_half_10": "2.43 s",
    "iso_Z_10": "78",
    "iso_N_10": "97",
    "iso_A_10": "175",
    "iso_11": "Pt-176",
    "iso_mass_11": "175.968938",
    "decay_type_11": "B+",
    "iso_half_11": "6.33 s",
    "iso_Z_11": "78",
    "iso_N_11": "98",
    "iso_A_11": "176",
    "iso_12": "Pt-177",
    "iso_mass_12": "176.968470",
    "decay_type_12": "B+",
    "iso_half_12": "10.0 s",
    "iso_Z_12": "78",
    "iso_N_12": "99",
    "iso_A_12": "177",
    "iso_13": "Pt-178",
    "iso_mass_13": "177.965649",
    "decay_type_13": "B+",
    "iso_half_13": "20.7 s",
    "iso_Z_13": "78",
    "iso_N_13": "100",
    "iso_A_13": "178",
    "iso_14": "Pt-179",
    "iso_mass_14": "178.965359",
    "decay_type_14": "B+",
    "iso_half_14": "21.2 s",
    "iso_Z_14": "78",
    "iso_N_14": "101",
    "iso_A_14": "179",
    "iso_15": "Pt-180",
    "iso_mass_15": "179.963032",
    "decay_type_15": "B+",
    "iso_half_15": "56 s",
    "iso_Z_15": "78",
    "iso_N_15": "102",
    "iso_A_15": "180",
    "iso_16": "Pt-181",
    "iso_mass_16": "180.963090",
    "decay_type_16": "B+",
    "iso_half_16": "52 s",
    "iso_Z_16": "78",
    "iso_N_16": "103",
    "iso_A_16": "181",
    "iso_17": "Pt-182",
    "iso_mass_17": "181.961172",
    "decay_type_17": "B+",
    "iso_half_17": "2.67 min",
    "iso_Z_17": "78",
    "iso_N_17": "104",
    "iso_A_17": "182",
    "iso_18": "Pt-183",
    "iso_mass_18": "182.961596",
    "decay_type_18": "B+",
    "iso_half_18": "6.5 min",
    "iso_Z_18": "78",
    "iso_N_18": "105",
    "iso_A_18": "183",
    "iso_19": "Pt-184",
    "iso_mass_19": "183.959922",
    "decay_type_19": "B+",
    "iso_half_19": "17.3 min",
    "iso_Z_19": "78",
    "iso_N_19": "106",
    "iso_A_19": "184",
    "iso_20": "Pt-185",
    "iso_mass_20": "184.960614",
    "decay_type_20": "B+",
    "iso_half_20": "70.9 min",
    "iso_Z_20": "78",
    "iso_N_20": "107",
    "iso_A_20": "185",
    "iso_21": "Pt-186",
    "iso_mass_21": "185.959351",
    "decay_type_21": "B+",
    "iso_half_21": "2.6 h",
    "iso_Z_21": "78",
    "iso_N_21": "108",
    "iso_A_21": "186",
    "iso_22": "Pt-187",
    "iso_mass_22": "186.960617",
    "decay_type_22": "B+",
    "iso_half_22": "10.5 h",
    "iso_Z_22": "78",
    "iso_N_22": "109",
    "iso_A_22": "187",
    "iso_23": "Pt-188",
    "iso_mass_23": "187.959395",
    "decay_type_23": "B+",
    "iso_half_23": "41.5 h",
    "iso_Z_23": "78",
    "iso_N_23": "110",
    "iso_A_23": "188",
    "iso_24": "Pt-189",
    "iso_mass_24": "188.960834",
    "decay_type_24": "B+",
    "iso_half_24": "13.2 d",
    "iso_Z_24": "78",
    "iso_N_24": "111",
    "iso_A_24": "189",
    "iso_25": "Pt-190",
    "iso_mass_25": "189.959932",
    "decay_type_25": "α",
    "iso_half_25": "4.83 × 10^11 y",
    "iso_Z_25": "78",
    "iso_N_25": "112",
    "iso_A_25": "190",
    "iso_26": "Pt-191",
    "iso_mass_26": "190.961677",
    "decay_type_26": "B+",
    "iso_half_26": "2.96 d",
    "iso_Z_26": "78",
    "iso_N_26": "113",
    "iso_A_26": "191",
    "iso_27": "Pt-192",
    "iso_mass_27": "191.961038",
    "decay_type_27": "α",
    "iso_half_27": "1.02 × 10^15 y",
    "iso_Z_27": "78",
    "iso_N_27": "114",
    "iso_A_27": "192",
    "iso_28": "Pt-193",
    "iso_mass_28": "192.962987",
    "decay_type_28": "B-",
    "iso_half_28": "50 y",
    "iso_Z_28": "78",
    "iso_N_28": "115",
    "iso_A_28": "193",
    "iso_29": "Pt-194",
    "iso_mass_29": "193.962680",
    "decay_type_29": "stable",
    "iso_half_29": "N/A",
    "iso_Z_29": "78",
    "iso_N_29": "116",
    "iso_A_29": "194",
    "iso_30": "Pt-195",
    "iso_mass_30": "194.964791",
    "decay_type_30": "stable",
    "iso_half_30": "N/A",
    "iso_Z_30": "78",
    "iso_N_30": "117",
    "iso_A_30": "195",
    "iso_31": "Pt-196",
    "iso_mass_31": "195.964952",
    "decay_type_31": "stable",
    "iso_half_31": "N/A",
    "iso_Z_31": "78",
    "iso_N_31": "118",
    "iso_A_31": "196",
    "iso_32": "Pt-197",
    "iso_mass_32": "196.967340",
    "decay_type_32": "B-",
    "iso_half_32": "19.891 h",
    "iso_Z_32": "78",
    "iso_N_32": "119",
    "iso_A_32": "197",
    "iso_33": "Pt-198",
    "iso_mass_33": "197.967893",
    "decay_type_33": "stable",
    "iso_half_33": "N/A",
    "iso_Z_33": "78",
    "iso_N_33": "120",
    "iso_A_33": "198",
    "iso_34": "Pt-199",
    "iso_mass_34": "198.970593",
    "decay_type_34": "B-",
    "iso_half_34": "30.8 min",
    "iso_Z_34": "78",
    "iso_N_34": "121",
    "iso_A_34": "199",
    "iso_35": "Pt-200",
    "iso_mass_35": "199.971443",
    "decay_type_35": "B-",
    "iso_half_35": "12.5 h",
    "iso_Z_35": "78",
    "iso_N_35": "122",
    "iso_A_35": "200",
    "iso_36": "Pt-201",
    "iso_mass_36": "200.974513",
    "decay_type_36": "B-",
    "iso_half_36": "9.33 h",
    "iso_Z_36": "78",
    "iso_N_36": "123",
    "iso_A_36": "201",
    "iso_37": "Pt-202",
    "iso_mass_37": "201.975639",
    "decay_type_37": "B-",
    "iso_half_37": "44.2 min",
    "iso_Z_37": "78",
    "iso_N_37": "124",
    "iso_A_37": "202",
    "iso_38": "Pt-203",
    "iso_mass_38": "202.97893",
    "decay_type_38": "B-",
    "iso_half_38": "16.6 min",
    "iso_Z_38": "78",
    "iso_N_38": "125",
    "iso_A_38": "203",
    "iso_39": "Pt-204",
    "iso_mass_39": "203.98076",
    "decay_type_39": "B-",
    "iso_half_39": "3.77 min",
    "iso_Z_39": "78",
    "iso_N_39": "126",
    "iso_A_39": "204",
    "iso_40": "Pt-205",
    "iso_mass_40": "204.98420",
    "decay_type_40": "B-",
    "iso_half_40": "3.0 min",
    "iso_Z_40": "78",
    "iso_N_40": "127",
    "iso_A_40": "205",
    "crystal_structure": "Face-centered cubic (fcc)",
    "lattice_constants": {
      "a": "3.924 Å"
    },
    "debye_temperature": {
      "low_temperature_limit": "240 K",
      "room_temperature": "230 K"
    }
  }
]