[
  {
"element_code": "AAiEPp6gVdhiwS4fhZZ",
    "wikilink": "https://en.wikipedia.org/wiki/Polonium",
    "link": "https://upload.wikimedia.org/wikipedia/en/6/66/Polonium.jpg",
    "description": "Polonium is a chemical element with the symbol Po and atomic number 84. A rare and highly radioactive metal with no stable isotopes, polonium is chemically similar to selenium and tellurium, though its metallic character resembles that of its horizontal neighbors in the periodic table: thallium, lead, and bismuth. Due to the short half-life of all its isotopes, its natural occurrence is limited to tiny traces of the fleeting polonium-210 (with a half-life of 138 days) in uranium ores, as it is the penultimate daughter of natural uranium-238. Though slightly longer-lived isotopes exist, they are much more difficult to produce. Today, polonium is usually produced in milligram quantities by the neutron irradiation of bismuth. Due to its intense radioactivity, which results in the radiolysis of chemical bonds and radioactive self-heating, its chemistry has mostly been investigated on the trace scale only.",

    "element": "Polonium",
    "short": "Po",
    "element_year": "1898",
    "element_discovered_name": "Pierre and Marie Curie",
    "element_group": "Metalloids",
    "element_appearance": "Silvery",
    "element_electrons": "84",
    "element_protons": "84",
    "element_neutron_common": "126",

    "radioactive": "Yes",
    "neutron_cross_sectional": "0.03 (b)",

    "electrical_type": "Conductor",
    "resistivity": "0.40 μΩm",
    "resistivity_mult": "0.0000001",
    "magnetic_type": "---",
    "superconducting_point": "---",

    "element_atomic_number": "84",
    "element_atomicmass": "209 (u)",
    "element_density": "9.196 (g/cm^3)",
    "element_electronegativty": "2.0",
    "element_block": "p - block",
    "element_shells_electrons": "K2 L8 M18 N32 O18 P6 Q0 R0",
    "element_model": "https://upload.wikimedia.org/wikipedia/commons/thumb/3/3a/Electron_shell_084_Polonium_-_no_label.svg/800px-Electron_shell_084_Polonium_-_no_label.svg.png",

    "element_boiling_kelvin": "1235 (K)",
    "element_boiling_celsius": "962 (°C)",
    "element_boiling_fahrenheit": "1764 (°F)",
    "element_melting_kelvin": "527 (K)",
    "element_melting_celsius": "254 (°C)",
    "element_melting_fahrenheit": "489 (°F)",

    "element_electron_config": "4f^14, 5d^10, 6s^2, 6p^4",
    "element_ion_charge": "Po^2+, Po^4+",
    "element_ionization_energy1": "8.417 (eV)",
    "element_atomic_radius_e": "190 (pm)",
    "element_atomic_radius": "135 (pm)",
    "element_covalent_radius": "--- (pm)",
    "element_van_der_waals": "197 (pm)",

    "element_phase": "Solid",
    "element_fusion_heat": "13 (kJ/mol)",
    "element_specific_heat_capacity": "0.094 J/(g·K)",
    "element_vaporization_heat": "102.91 (kJ/mol)",

    "oxidation_state_neg": "2",
    "oxidation_state_pos": "2 4 5 6",

    "cas_number": "7440-08-6",
    "eg_number": "231-118-2",


      "iso_1": "Po-186",
      "iso_mass_1": "186.00440",
      "decay_type_1": "α",
      "iso_half_1": "28 μs",
      "iso_Z_1": "84",
      "iso_N_1": "102",
      "iso_A_1": "186",

      "iso_2": "Po-187",
      "iso_mass_2": "187.00303",
      "decay_type_2": "α",
      "iso_half_2": "1.4 ms",
      "iso_Z_2": "84",
      "iso_N_2": "103",
      "iso_A_2": "187",

      "iso_3": "Po-188",
      "iso_mass_3": "187.99942",
      "decay_type_3": "α",
      "iso_half_3": "270 μs",
      "iso_Z_3": "84",
      "iso_N_3": "104",
      "iso_A_3": "188",

      "iso_4": "Po-189",
      "iso_mass_4": "188.99847",
      "decay_type_4": "α",
      "iso_half_4": "3.5 ms",
      "iso_Z_4": "84",
      "iso_N_4": "105",
      "iso_A_4": "189",

      "iso_5": "Po-190",
      "iso_mass_5": "189.99510",
      "decay_type_5": "α",
      "iso_half_5": "2.45 ms",
      "iso_Z_5": "84",
      "iso_N_5": "106",
      "iso_A_5": "190",

      "iso_6": "Po-191",
      "iso_mass_6": "190.99456",
      "decay_type_6": "α",
      "iso_half_6": "22 ms",
      "iso_Z_6": "84",
      "iso_N_6": "107",
      "iso_A_6": "191",

      "iso_7": "Po-192",
      "iso_mass_7": "191.99134",
      "decay_type_7": "α",
      "iso_half_7": "32.2 ms",
      "iso_Z_7": "84",
      "iso_N_7": "108",
      "iso_A_7": "192",

      "iso_8": "Po-193",
      "iso_mass_8": "192.99106",
      "decay_type_8": "α",
      "iso_half_8": "399 ms",
      "iso_Z_8": "84",
      "iso_N_8": "109",
      "iso_A_8": "193",

      "iso_9": "Po-194",
      "iso_mass_9": "193.98819",
      "decay_type_9": "α",
      "iso_half_9": "392 ms",
      "iso_Z_9": "84",
      "iso_N_9": "110",
      "iso_A_9": "194",

      "iso_10": "Po-195",
      "iso_mass_10": "194.98807",
      "decay_type_10": "α",
      "iso_half_10": "4.64 s",
      "iso_Z_10": "84",
      "iso_N_10": "111",
      "iso_A_10": "195",

      "iso_11": "Po-196",
      "iso_mass_11": "195.98554",
      "decay_type_11": "α",
      "iso_half_11": "5.56 s",
      "iso_Z_11": "84",
      "iso_N_11": "112",
      "iso_A_11": "196",

      "iso_12": "Po-197",
      "iso_mass_12": "196.98562",
      "decay_type_12": "B+",
      "iso_half_12": "53.6 s",
      "iso_Z_12": "84",
      "iso_N_12": "113",
      "iso_A_12": "197",

      "iso_13": "Po-198",
      "iso_mass_13": "197.98339",
      "decay_type_13": "B+",
      "iso_half_13": "1.76 min",
      "iso_Z_13": "84",
      "iso_N_13": "114",
      "iso_A_13": "198",

      "iso_14": "Po-199",
      "iso_mass_14": "198.98367",
      "decay_type_14": "B+",
      "iso_half_14": "5.48 min",
      "iso_Z_14": "84",
      "iso_N_14": "115",
      "iso_A_14": "199",

      "iso_15": "Po-200",
      "iso_mass_15": "199.98180",
      "decay_type_15": "B+",
      "iso_half_15": "11.5 min",
      "iso_Z_15": "84",
      "iso_N_15": "116",
      "iso_A_15": "200",

      "iso_16": "Po-201",
      "iso_mass_16": "200.98226",
      "decay_type_16": "B+",
      "iso_half_16": "15.3 min",
      "iso_Z_16": "84",
      "iso_N_16": "117",
      "iso_A_16": "201",

      "iso_17": "Po-202",
      "iso_mass_17": "201.98076",
      "decay_type_17": "B+",
      "iso_half_17": "44.7 min",
      "iso_Z_17": "84",
      "iso_N_17": "118",
      "iso_A_17": "202",

      "iso_18": "Po-203",
      "iso_mass_18": "202.98142",
      "decay_type_18": "B+",
      "iso_half_18": "36.7 min",
      "iso_Z_18": "84",
      "iso_N_18": "119",
      "iso_A_18": "203",

      "iso_19": "Po-204",
      "iso_mass_19": "203.98032",
      "decay_type_19": "B+",
      "iso_half_19": "3.53 h",
      "iso_Z_19": "84",
      "iso_N_19": "120",
      "iso_A_19": "204",

      "iso_20": "Po-205",
      "iso_mass_20": "204.98120",
      "decay_type_20": "B+",
      "iso_half_20": "1.66 h",
      "iso_Z_20": "84",
      "iso_N_20": "121",
      "iso_A_20": "205",

      "iso_21": "Po-206",
      "iso_mass_21": "205.98048",
      "decay_type_21": "B+",
      "iso_half_21": "8.8 d",
      "iso_Z_21": "84",
      "iso_N_21": "122",
      "iso_A_21": "206",

      "iso_22": "Po-207",
      "iso_mass_22": "206.98159",
      "decay_type_22": "B+",
      "iso_half_22": "5.7 h",
      "iso_Z_22": "84",
      "iso_N_22": "123",
      "iso_A_22": "207",

      "iso_23": "Po-208",
      "iso_mass_23": "207.98123",
      "decay_type_23": "B+",
      "iso_half_23": "2.898 y",
      "iso_Z_23": "84",
      "iso_N_23": "124",
      "iso_A_23": "208",

      "iso_24": "Po-209",
      "iso_mass_24": "208.98243",
      "decay_type_24": "α",
      "iso_half_24": "124 y",
      "iso_Z_24": "84",
      "iso_N_24": "125",
      "iso_A_24": "209",

      "iso_25": "Po-210",
      "iso_mass_25": "209.98287",
      "decay_type_25": "α",
      "iso_half_25": "138.376 d",
      "iso_Z_25": "84",
      "iso_N_25": "126",
      "iso_A_25": "210",

      "iso_26": "Po-211",
      "iso_mass_26": "210.98665",
      "decay_type_26": "α",
      "iso_half_26": "0.516 s",
      "iso_Z_26": "84",
      "iso_N_26": "127",
      "iso_A_26": "211",

      "iso_27": "Po-212",
      "iso_mass_27": "211.98884",
      "decay_type_27": "α",
      "iso_half_27": "299 ns",
      "iso_Z_27": "84",
      "iso_N_27": "128",
      "iso_A_27": "212",

      "iso_28": "Po-213",
      "iso_mass_28": "212.99285",
      "decay_type_28": "α",
      "iso_half_28": "4.2 μs",
      "iso_Z_28": "84",
      "iso_N_28": "129",
      "iso_A_28": "213",

      "iso_29": "Po-214",
      "iso_mass_29": "213.99536",
      "decay_type_29": "α",
      "iso_half_29": "164.3 μs",
      "iso_Z_29": "84",
      "iso_N_29": "130",
      "iso_A_29": "214",

      "iso_30": "Po-215",
      "iso_mass_30": "214.99942",
      "decay_type_30": "α",
      "iso_half_30": "1.78 ms",
      "iso_Z_30": "84",
      "iso_N_30": "131",
      "iso_A_30": "215",

      "iso_31": "Po-216",
      "iso_mass_31": "216.00189",
      "decay_type_31": "α",
      "iso_half_31": "145 ms",
      "iso_Z_31": "84",
      "iso_N_31": "132",
      "iso_A_31": "216",

      "iso_32": "Po-217",
      "iso_mass_32": "217.00632",
      "decay_type_32": "α",
      "iso_half_32": "1.5 s",
      "iso_Z_32": "84",
      "iso_N_32": "133",
      "iso_A_32": "217",

      "iso_33": "Po-218",
      "iso_mass_33": "218.00897",
      "decay_type_33": "α",
      "iso_half_33": "3.10 min",
      "iso_Z_33": "84",
      "iso_N_33": "134",
      "iso_A_33": "218",

      "iso_34": "Po-219",
      "iso_mass_34": "219.01361",
      "decay_type_34": "B-",
      "iso_half_34": "10.0 min",
      "iso_Z_34": "84",
      "iso_N_34": "135",
      "iso_A_34": "219",

      "iso_35": "Po-220",
      "iso_mass_35": "220.01660",
      "decay_type_35": "B-",
      "iso_half_35": "28.4 s",
      "iso_Z_35": "84",
      "iso_N_35": "136",
      "iso_A_35": "220",

      "iso_36": "Po-221",
      "iso_mass_36": "221.02123",
      "decay_type_36": "B-",
      "iso_half_36": "2.2 s",
      "iso_Z_36": "84",
      "iso_N_36": "137",
      "iso_A_36": "221",

      "iso_37": "Po-222",
      "iso_mass_37": "222.02414",
      "decay_type_37": "B-",
      "iso_half_37": "3.8 s",
      "iso_Z_37": "84",
      "iso_N_37": "138",
      "iso_A_37": "222",

      "iso_38": "Po-223",
      "iso_mass_38": "223.02894",
      "decay_type_38": "B-",
      "iso_half_38": "1.0 s",
      "iso_Z_38": "84",
      "iso_N_38": "139",
      "iso_A_38": "223",

      "iso_39": "Po-224",
      "iso_mass_39": "224.03211",
      "decay_type_39": "B-",
      "iso_half_39": "0.5 s",
      "iso_Z_39": "84",
      "iso_N_39": "140",
      "iso_A_39": "224",

      "iso_40": "Po-225",
      "iso_mass_40": "225.03707",
      "decay_type_40": "B-",
      "iso_half_40": "0.3 s",
      "iso_Z_40": "84",
      "iso_N_40": "141",
      "iso_A_40": "225"
  }
]