[
  {
"element_code": "AAKJq8oxs5TngLqXfZZ",
    "wikilink": "https://en.wikipedia.org/wiki/Praseodymium",
    "link": "https://upload.wikimedia.org/wikipedia/commons/c/c7/Praseodymium.jpg",
    "description": "Praseodymium is a chemical element with the symbol Pr and atomic number 59. It is the third member of the lanthanide series and is traditionally considered to be one of the rare-earth metals. Praseodymium is a soft, silvery, malleable and ductile metal, valued for its magnetic, electrical, chemical, and optical properties. It is too reactive to be found in native form, and pure praseodymium metal slowly develops a green oxide coating when exposed to air.",

    "element": "Praseodymium",
    "short": "Pr",
    "element_year": "1885",
    "element_discovered_name": "Carl Auer von Welsbach",
    "element_group": "Lanthanoids",
    "element_appearance": "Grayish White",
    "element_electrons": "59",
    "element_protons": "59",
    "element_neutron_common": "82",

    "radioactive": "No",
    "neutron_cross_sectional": "11.5 (b)",

    "electrical_type": "Conductor",
    "resistivity": "7",
    "resistivity_mult": "0.0000001",
    "magnetic_type": "Paramagnetic",
    "superconducting_point": "---",

    "element_atomic_number": "59",
    "element_atomicmass": "140.908 (u)",
    "element_density": "6.77 (g/cm^3)",
    "element_electronegativty": "1.13",
    "element_block": "f - block",
    "element_shells_electrons": "K2 L8 18 N21 O8 P2 Q0 R0",
    "element_model": "https://upload.wikimedia.org/wikipedia/commons/thumb/3/32/Electron_shell_059_Praseodymium_-_no_label.svg/800px-Electron_shell_059_Praseodymium_-_no_label.svg.png",

    "element_boiling_kelvin": "3403 (K)",
    "element_boiling_celsius": "3130 (°C)",
    "element_boiling_fahrenheit": "5666 (°F)",
    "element_melting_kelvin": "1208 (K)",
    "element_melting_celsius": "935 (°C)",
    "element_melting_fahrenheit": "1715 (°F)",

    "element_electron_config": "4f^3 6s^2",
    "element_ion_charge": "Pr^3+",
    "element_ionization_energy1": "5.473 (eV)",
    "element_ionization_energy2": "10.55 (eV)",
    "element_ionization_energy3": "21.624 (eV)",
    "element_ionization_energy4": "38.98 (eV)",
    "element_ionization_energy5": "57.53 (eV)",
    "element_atomic_radius_e": "185 (pm)",
    "element_atomic_radius": "247 (pm)",
    "element_covalent_radius": "--- (pm)",
    "element_van_der_waals": "---",

    "element_phase": "Solid",
    "element_fusion_heat": "6.89 (kJ/mol)",
    "element_specific_heat_capacity": "0.193 J/(g·K)",
    "element_vaporization_heat": "331 (kJ/mol)",

    "oxidation_state_neg": "0",
    "oxidation_state_pos": "1 2 3 4 5",

    "speed_of_sound_gas": "---",
    "speed_of_sound_liquid": "---",
    "speed_of_sound_solid": "2280 (m/s) [20°C]",

    "mohs_hardness": "1.6",
    "vickers_hardness": "250-746 (MPa)",
    "brinell_hardness": "250-638 (MPa)",

    "young_modulus": "37.3 (GPa) [α-form]",
    "poisson_ratio": "0.281 [α-form]",
    "bulk_modulus": "28.8 (GPa) [α-form]",
    "shear_modulus": "14.8 (GPa) [α-form]",

      "iso_1": "Pr-121",
      "iso_mass_1": "120.95536",
      "decay_type_1": "p",
      "iso_half_1": "600 ms",
      "iso_Z_1": "59",
      "iso_N_1": "62",
      "iso_A_1": "121",

      "iso_2": "Pr-122",
      "iso_mass_2": "121.95181",
      "decay_type_2": "B+",
      "iso_half_2": "500 ms",
      "iso_Z_2": "59",
      "iso_N_2": "63",
      "iso_A_2": "122",

      "iso_3": "Pr-123",
      "iso_mass_3": "122.94596",
      "decay_type_3": "B+",
      "iso_half_3": "800 ms",
      "iso_Z_3": "59",
      "iso_N_3": "64",
      "iso_A_3": "123",

      "iso_4": "Pr-124",
      "iso_mass_4": "123.94296",
      "decay_type_4": "B+",
      "iso_half_4": "1.2 s",
      "iso_Z_4": "59",
      "iso_N_4": "65",
      "iso_A_4": "124",

      "iso_5": "Pr-125",
      "iso_mass_5": "124.93783",
      "decay_type_5": "B+",
      "iso_half_5": "3.3 s",
      "iso_Z_5": "59",
      "iso_N_5": "66",
      "iso_A_5": "125",

      "iso_6": "Pr-126",
      "iso_mass_6": "125.93531",
      "decay_type_6": "B+",
      "iso_half_6": "3.12 s",
      "iso_Z_6": "59",
      "iso_N_6": "67",
      "iso_A_6": "126",

      "iso_7": "Pr-127",
      "iso_mass_7": "126.93083",
      "decay_type_7": "B+",
      "iso_half_7": "4.2 s",
      "iso_Z_7": "59",
      "iso_N_7": "68",
      "iso_A_7": "127",

      "iso_8": "Pr-128",
      "iso_mass_8": "127.92879",
      "decay_type_8": "B+",
      "iso_half_8": "2.84 s",
      "iso_Z_8": "59",
      "iso_N_8": "69",
      "iso_A_8": "128",

      "iso_9": "Pr-129",
      "iso_mass_9": "128.92510",
      "decay_type_9": "B+",
      "iso_half_9": "32 s",
      "iso_Z_9": "59",
      "iso_N_9": "70",
      "iso_A_9": "129",

      "iso_10": "Pr-130",
      "iso_mass_10": "129.92359",
      "decay_type_10": "B+",
      "iso_half_10": "40 s",
      "iso_Z_10": "59",
      "iso_N_10": "71",
      "iso_A_10": "130",

      "iso_11": "Pr-131",
      "iso_mass_11": "130.92026",
      "decay_type_11": "B+",
      "iso_half_11": "1.50 min",
      "iso_Z_11": "59",
      "iso_N_11": "72",
      "iso_A_11": "131",

      "iso_12": "Pr-132",
      "iso_mass_12": "131.91926",
      "decay_type_12": "B+",
      "iso_half_12": "1.49 min",
      "iso_Z_12": "59",
      "iso_N_12": "73",
      "iso_A_12": "132",

      "iso_13": "Pr-133",
      "iso_mass_13": "132.916331",
      "decay_type_13": "B+",
      "iso_half_13": "6.5 min",
      "iso_Z_13": "59",
      "iso_N_13": "74",
      "iso_A_13": "133",

      "iso_14": "Pr-134",
      "iso_mass_14": "133.91571",
      "decay_type_14": "B+",
      "iso_half_14": "17 min",
      "iso_Z_14": "59",
      "iso_N_14": "75",
      "iso_A_14": "134",

      "iso_15": "Pr-135",
      "iso_mass_15": "134.913112",
      "decay_type_15": "B+",
      "iso_half_15": "24 min",
      "iso_Z_15": "59",
      "iso_N_15": "76",
      "iso_A_15": "135",

      "iso_16": "Pr-136",
      "iso_mass_16": "135.912692",
      "decay_type_16": "B+",
      "iso_half_16": "13.1 min",
      "iso_Z_16": "59",
      "iso_N_16": "77",
      "iso_A_16": "136",

      "iso_17": "Pr-137",
      "iso_mass_17": "136.910705",
      "decay_type_17": "B+",
      "iso_half_17": "1.28 h",
      "iso_Z_17": "59",
      "iso_N_17": "78",
      "iso_A_17": "137",

      "iso_18": "Pr-138",
      "iso_mass_18": "137.910755",
      "decay_type_18": "B+",
      "iso_half_18": "1.45 min",
      "iso_Z_18": "59",
      "iso_N_18": "79",
      "iso_A_18": "138",

      "iso_19": "Pr-139",
      "iso_mass_19": "138.908938",
      "decay_type_19": "B+",
      "iso_half_19": "4.41 h",
      "iso_Z_19": "59",
      "iso_N_19": "80",
      "iso_A_19": "139",

      "iso_20": "Pr-140",
      "iso_mass_20": "139.909076",
      "decay_type_20": "EC",
      "iso_half_20": "3.39 min",
      "iso_Z_20": "59",
      "iso_N_20": "81",
      "iso_A_20": "140",

      "iso_21": "Pr-141",
      "iso_mass_21": "140.90766",
      "decay_type_21": "stable",
      "iso_half_21": "N/A",
      "iso_Z_21": "59",
      "iso_N_21": "82",
      "iso_A_21": "141",

      "iso_22": "Pr-142",
      "iso_mass_22": "141.91004",
      "decay_type_22": "B-",
      "iso_half_22": "19.12 h",
      "iso_Z_22": "59",
      "iso_N_22": "83",
      "iso_A_22": "142",

      "iso_23": "Pr-143",
      "iso_mass_23": "142.91082",
      "decay_type_23": "B-",
      "iso_half_23": "13.57 d",
      "iso_Z_23": "59",
      "iso_N_23": "84",
      "iso_A_23": "143",

      "iso_24": "Pr-144",
      "iso_mass_24": "143.91331",
      "decay_type_24": "B-",
      "iso_half_24": "17.28 min",
      "iso_Z_24": "59",
      "iso_N_24": "85",
      "iso_A_24": "144",

      "iso_25": "Pr-145",
      "iso_mass_25": "144.91452",
      "decay_type_25": "B-",
      "iso_half_25": "5.984 h",
      "iso_Z_25": "59",
      "iso_N_25": "86",
      "iso_A_25": "145",

      "iso_26": "Pr-146",
      "iso_mass_26": "145.91768",
      "decay_type_26": "B-",
      "iso_half_26": "13.49 min",
      "iso_Z_26": "59",
      "iso_N_26": "87",
      "iso_A_26": "146",

      "iso_27": "Pr-147",
      "iso_mass_27": "146.91908",
      "decay_type_27": "B-",
      "iso_half_27": "56.4 s",
      "iso_Z_27": "59",
      "iso_N_27": "88",
      "iso_A_27": "147",

      "iso_28": "Pr-148",
      "iso_mass_28": "147.92213",
      "decay_type_28": "B-",
      "iso_half_28": "56 s",
      "iso_Z_28": "59",
      "iso_N_28": "89",
      "iso_A_28": "148",

      "iso_29": "Pr-149",
      "iso_mass_29": "148.92372",
      "decay_type_29": "B-",
      "iso_half_29": "4.2 s",
      "iso_Z_29": "59",
      "iso_N_29": "90",
      "iso_A_29": "149",

      "iso_30": "Pr-150",
      "iso_mass_30": "149.92728",
      "decay_type_30": "B-",
      "iso_half_30": "4.0 s",
      "iso_Z_30": "59",
      "iso_N_30": "91",
      "iso_A_30": "150",

      "iso_31": "Pr-151",
      "iso_mass_31": "150.92921",
      "decay_type_31": "B-",
      "iso_half_31": "1.76 s",
      "iso_Z_31": "59",
      "iso_N_31": "92",
      "iso_A_31": "151",

      "iso_32": "Pr-152",
      "iso_mass_32": "151.93256",
      "decay_type_32": "B-",
      "iso_half_32": "1.4 s",
      "iso_Z_32": "59",
      "iso_N_32": "93",
      "iso_A_32": "152",

      "iso_33": "Pr-153",
      "iso_mass_33": "152.93469",
      "decay_type_33": "B-",
      "iso_half_33": "0.8 s",
      "iso_Z_33": "59",
      "iso_N_33": "94",
      "iso_A_33": "153",

      "iso_34": "Pr-154",
      "iso_mass_34": "153.93839",
      "decay_type_34": "B-",
      "iso_half_34": "0.6 s",
      "iso_Z_34": "59",
      "iso_N_34": "95",
      "iso_A_34": "154",

      "iso_35": "Pr-155",
      "iso_mass_35": "154.94012",
      "decay_type_35": "B-",
      "iso_half_35": "0.3 s",
      "iso_Z_35": "59",
      "iso_N_35": "96",
      "iso_A_35": "155",

      "iso_36": "Pr-156",
      "iso_mass_36": "155.94427",
      "decay_type_36": "B-",
      "iso_half_36": "0.2 s",
      "iso_Z_36": "59",
      "iso_N_36": "97",
      "iso_A_36": "156",

      "iso_37": "Pr-157",
      "iso_mass_37": "156.94643",
      "decay_type_37": "B-",
      "iso_half_37": "0.1 s",
      "iso_Z_37": "59",
      "iso_N_37": "98",
      "iso_A_37": "157"
  }
]