[
  {
"element_code": "AAr8pTcq2xBjtZ2WfZZ",
    "wikilink": "https://en.wikipedia.org/wiki/Promethium",
    "link": "http://www.twnree.com/wp-content/uploads/2012/02/61-Promethium.jpg",
    "description": "Promethium is a chemical element with the symbol Pm and atomic number 61. All of its isotopes are radioactive; it is extremely rare, with only about 500–600 grams naturally occurring in Earth's crust at any given time. Promethium is one of only two radioactive elements that are followed in the periodic table by elements with stable forms, the other being technetium. Chemically, promethium is a lanthanide. Promethium shows only one stable oxidation state of +3.",

    "element": "Promethium",
    "short": "Pm",
    "element_year": "1942",
    "element_discovered_name": "Chien Shiung Wu",
    "element_group": "Lanthanoids",
    "element_appearance": "Metallic",
    "element_electrons": "61",
    "element_protons": "61",
    "element_neutron_common": "85",

    "radioactive": "Yes",
    "neutron_cross_sectional": "168.4 (b)",

    "electrical_type": "Conductor",
    "resistivity": "7.5",
    "resistivity_mult": "0.0000001",
    "magnetic_type": "Paramagnetic",
    "superconducting_point": "---",

    "element_atomic_number": "61",
    "element_atomicmass": "144.912 (u)",
    "element_density": "7.26 (g/cm^3)",
    "element_electronegativty": "1.13",
    "element_block": "f - block",
    "element_shells_electrons": "K2 L8 18 N23 O8 P2 Q0 R0",
    "element_model": "https://upload.wikimedia.org/wikipedia/commons/thumb/8/86/Electron_shell_061_Promethium_-_no_label.svg/800px-Electron_shell_061_Promethium_-_no_label.svg.png",

    "element_boiling_kelvin": "3273 (K)",
    "element_boiling_celsius": "3000 (°C)",
    "element_boiling_fahrenheit": "5432 (°F)",
    "element_melting_kelvin": "1315 (K)",
    "element_melting_celsius": "1042 (°C)",
    "element_melting_fahrenheit": "1908 (°F)",

    "element_electron_config": "4f^5 6s^2",
    "element_ion_charge": "Pm^3+",
    "element_ionization_energy1": "5.582 (eV)",
    "element_ionization_energy2": "10.90 (eV)",
    "element_ionization_energy3": "22.3 (eV)",
    "element_ionization_energy4": "41.1 (eV)",
    "element_atomic_radius_e": "185 (pm)",
    "element_atomic_radius": "205 (pm)",
    "element_covalent_radius": "--- (pm)",
    "element_van_der_waals": "---",

    "element_phase": "Solid",
    "element_fusion_heat": "7.7 (kJ/mol)",
    "element_specific_heat_capacity": "--- J/(g·K)",
    "element_vaporization_heat": "290 (kJ/mol)",

    "oxidation_state_neg": "2 3",
    "oxidation_state_pos": "",

    "mohs_hardness": "---",
    "vickers_hardness": "617.8 (MPa)",
    "brinell_hardness": "---",

    "young_modulus": "46 (GPa) [α-form]",
    "poisson_ratio": "0.28 [α-form]",
    "bulk_modulus": "33 (GPa) [α-form]",
    "shear_modulus": "18 (GPa) [α-form]",

    "iso_1": "Pm-154",
    "iso_mass_1": "153.92646",
    "iso_half_1": "1.73 (min)",
    "iso_Z_1": "61",
    "iso_N_1": "93",
    "iso_A_1": "154",

    "iso_2": "Pm-155",
    "iso_mass_2": "154.92810",
    "iso_half_2": "41.5 (s)",
    "iso_Z_2": "61",
    "iso_N_2": "94",
    "iso_A_2": "155"
  }
]