[
  {
"element_code": "AAr8pTcq2xBjtZ2WfZZ",
    "wikilink": "https://en.wikipedia.org/wiki/Promethium",
    "link": "http://www.twnree.com/wp-content/uploads/2012/02/61-Promethium.jpg",
    "description": "Promethium is a chemical element with the symbol Pm and atomic number 61. All of its isotopes are radioactive; it is extremely rare, with only about 500–600 grams naturally occurring in Earth's crust at any given time. Promethium is one of only two radioactive elements that are followed in the periodic table by elements with stable forms, the other being technetium. Chemically, promethium is a lanthanide. Promethium shows only one stable oxidation state of +3.",

    "element": "Promethium",
    "short": "Pm",
    "element_year": "1942",
    "element_discovered_name": "Chien Shiung Wu",
    "element_group": "Lanthanoids",
    "element_appearance": "Metallic",
    "element_electrons": "61",
    "element_protons": "61",
    "element_neutron_common": "85",

    "radioactive": "Yes",
    "neutron_cross_sectional": "168.4 (b)",

    "electrical_type": "Conductor",
    "resistivity": "7.5",
    "resistivity_mult": "0.0000001",
    "magnetic_type": "Paramagnetic",
    "superconducting_point": "---",

    "element_atomic_number": "61",
    "element_atomicmass": "144.912 (u)",
    "element_density": "7.26 (g/cm^3)",
    "element_electronegativty": "1.13",
    "element_block": "f - block",
    "element_shells_electrons": "K2 L8 18 N23 O8 P2 Q0 R0",
    "element_model": "https://upload.wikimedia.org/wikipedia/commons/thumb/8/86/Electron_shell_061_Promethium_-_no_label.svg/800px-Electron_shell_061_Promethium_-_no_label.svg.png",

    "element_boiling_kelvin": "3273 (K)",
    "element_boiling_celsius": "3000 (°C)",
    "element_boiling_fahrenheit": "5432 (°F)",
    "element_melting_kelvin": "1315 (K)",
    "element_melting_celsius": "1042 (°C)",
    "element_melting_fahrenheit": "1908 (°F)",

    "element_electron_config": "4f^5 6s^2",
    "element_ion_charge": "Pm^3+",
    "element_ionization_energy1": "5.582 (eV)",
    "element_ionization_energy2": "10.90 (eV)",
    "element_ionization_energy3": "22.3 (eV)",
    "element_ionization_energy4": "41.1 (eV)",
    "element_atomic_radius_e": "185 (pm)",
    "element_atomic_radius": "205 (pm)",
    "element_covalent_radius": "--- (pm)",
    "element_van_der_waals": "---",

    "element_phase": "Solid",
    "element_fusion_heat": "7.7 (kJ/mol)",
    "element_specific_heat_capacity": "--- J/(g·K)",
    "element_vaporization_heat": "290 (kJ/mol)",

    "oxidation_state_neg": "2 3",
    "oxidation_state_pos": "",

    "mohs_hardness": "---",
    "vickers_hardness": "617.8 (MPa)",
    "brinell_hardness": "---",

    "young_modulus": "46 (GPa) [α-form]",
    "poisson_ratio": "0.28 [α-form]",
    "bulk_modulus": "33 (GPa) [α-form]",
    "shear_modulus": "18 (GPa) [α-form]",

    "cas_number": "7440-12-2",
    "eg_number": "231-122-4",

      "iso_1": "Pm-126",
      "iso_mass_1": "125.95752",
      "decay_type_1": "B+",
      "iso_half_1": "0.5 s",
      "iso_Z_1": "61",
      "iso_N_1": "65",
      "iso_A_1": "126",

      "iso_2": "Pm-127",
      "iso_mass_2": "126.95163",
      "decay_type_2": "B+",
      "iso_half_2": "1 s",
      "iso_Z_2": "61",
      "iso_N_2": "66",
      "iso_A_2": "127",

      "iso_3": "Pm-128",
      "iso_mass_3": "127.94842",
      "decay_type_3": "B+",
      "iso_half_3": "1 s",
      "iso_Z_3": "61",
      "iso_N_3": "67",
      "iso_A_3": "128",

      "iso_4": "Pm-129",
      "iso_mass_4": "128.94316",
      "decay_type_4": "B+",
      "iso_half_4": "3 s",
      "iso_Z_4": "61",
      "iso_N_4": "68",
      "iso_A_4": "129",

      "iso_5": "Pm-130",
      "iso_mass_5": "129.94045",
      "decay_type_5": "B+",
      "iso_half_5": "2.6 s",
      "iso_Z_5": "61",
      "iso_N_5": "69",
      "iso_A_5": "130",

      "iso_6": "Pm-131",
      "iso_mass_6": "130.93587",
      "decay_type_6": "B+",
      "iso_half_6": "6.3 s",
      "iso_Z_6": "61",
      "iso_N_6": "70",
      "iso_A_6": "131",

      "iso_7": "Pm-132",
      "iso_mass_7": "131.93375",
      "decay_type_7": "B+",
      "iso_half_7": "6.2 s",
      "iso_Z_7": "61",
      "iso_N_7": "71",
      "iso_A_7": "132",

      "iso_8": "Pm-133",
      "iso_mass_8": "132.92978",
      "decay_type_8": "B+",
      "iso_half_8": "15 s",
      "iso_Z_8": "61",
      "iso_N_8": "72",
      "iso_A_8": "133",

      "iso_9": "Pm-134",
      "iso_mass_9": "133.92835",
      "decay_type_9": "B+",
      "iso_half_9": "22 s",
      "iso_Z_9": "61",
      "iso_N_9": "73",
      "iso_A_9": "134",

      "iso_10": "Pm-135",
      "iso_mass_10": "134.92488",
      "decay_type_10": "B+",
      "iso_half_10": "49 s",
      "iso_Z_10": "61",
      "iso_N_10": "74",
      "iso_A_10": "135",

      "iso_11": "Pm-136",
      "iso_mass_11": "135.92357",
      "decay_type_11": "B+",
      "iso_half_11": "107 s",
      "iso_Z_11": "61",
      "iso_N_11": "75",
      "iso_A_11": "136",

      "iso_12": "Pm-137",
      "iso_mass_12": "136.92048",
      "decay_type_12": "B+",
      "iso_half_12": "2 min",
      "iso_Z_12": "61",
      "iso_N_12": "76",
      "iso_A_12": "137",

      "iso_13": "Pm-138",
      "iso_mass_13": "137.91955",
      "decay_type_13": "B+",
      "iso_half_13": "10 s",
      "iso_Z_13": "61",
      "iso_N_13": "77",
      "iso_A_13": "138",

      "iso_14": "Pm-139",
      "iso_mass_14": "138.91680",
      "decay_type_14": "B+",
      "iso_half_14": "4.15 min",
      "iso_Z_14": "61",
      "iso_N_14": "78",
      "iso_A_14": "139",

      "iso_15": "Pm-140",
      "iso_mass_15": "139.91604",
      "decay_type_15": "B+",
      "iso_half_15": "9.2 s",
      "iso_Z_15": "61",
      "iso_N_15": "79",
      "iso_A_15": "140",

      "iso_16": "Pm-141",
      "iso_mass_16": "140.91356",
      "decay_type_16": "B+",
      "iso_half_16": "20.9 min",
      "iso_Z_16": "61",
      "iso_N_16": "80",
      "iso_A_16": "141",

      "iso_17": "Pm-142",
      "iso_mass_17": "141.91287",
      "decay_type_17": "B+",
      "iso_half_17": "40.5 s",
      "iso_Z_17": "61",
      "iso_N_17": "81",
      "iso_A_17": "142",

      "iso_18": "Pm-143",
      "iso_mass_18": "142.91093",
      "decay_type_18": "EC",
      "iso_half_18": "265 d",
      "iso_Z_18": "61",
      "iso_N_18": "82",
      "iso_A_18": "143",

      "iso_19": "Pm-144",
      "iso_mass_19": "143.91259",
      "decay_type_19": "B+",
      "iso_half_19": "363 d",
      "iso_Z_19": "61",
      "iso_N_19": "83",
      "iso_A_19": "144",

      "iso_20": "Pm-145",
      "iso_mass_20": "144.91276",
      "decay_type_20": "EC",
      "iso_half_20": "17.7 y",
      "iso_Z_20": "61",
      "iso_N_20": "84",
      "iso_A_20": "145",

      "iso_21": "Pm-146",
      "iso_mass_21": "145.91470",
      "decay_type_21": "EC",
      "iso_half_21": "5.53 y",
      "iso_Z_21": "61",
      "iso_N_21": "85",
      "iso_A_21": "146",

      "iso_22": "Pm-147",
      "iso_mass_22": "146.91514",
      "decay_type_22": "B-",
      "iso_half_22": "2.62 y",
      "iso_Z_22": "61",
      "iso_N_22": "86",
      "iso_A_22": "147",

      "iso_23": "Pm-148",
      "iso_mass_23": "147.91812",
      "decay_type_23": "B-",
      "iso_half_23": "5.37 d",
      "iso_Z_23": "61",
      "iso_N_23": "87",
      "iso_A_23": "148",

      "iso_24": "Pm-149",
      "iso_mass_24": "148.91834",
      "decay_type_24": "B-",
      "iso_half_24": "53.08 h",
      "iso_Z_24": "61",
      "iso_N_24": "88",
      "iso_A_24": "149",

      "iso_25": "Pm-150",
      "iso_mass_25": "149.92099",
      "decay_type_25": "B-",
      "iso_half_25": "2.68 h",
      "iso_Z_25": "61",
      "iso_N_25": "89",
      "iso_A_25": "150",

      "iso_26": "Pm-151",
      "iso_mass_26": "150.92120",
      "decay_type_26": "B-",
      "iso_half_26": "28.40 h",
      "iso_Z_26": "61",
      "iso_N_26": "90",
      "iso_A_26": "151",

      "iso_27": "Pm-152",
      "iso_mass_27": "151.92350",
      "decay_type_27": "B-",
      "iso_half_27": "4.12 min",
      "iso_Z_27": "61",
      "iso_N_27": "91",
      "iso_A_27": "152",

      "iso_28": "Pm-153",
      "iso_mass_28": "152.92409",
      "decay_type_28": "B-",
      "iso_half_28": "2.62 min",
      "iso_Z_28": "61",
      "iso_N_28": "92",
      "iso_A_28": "153",

      "iso_29": "Pm-154",
      "iso_mass_29": "153.92646",
      "decay_type_29": "B-",
      "iso_half_29": "1.73 min",
      "iso_Z_29": "61",
      "iso_N_29": "93",
      "iso_A_29": "154",

      "iso_30": "Pm-155",
      "iso_mass_30": "154.92810",
      "decay_type_30": "B-",
      "iso_half_30": "41.5 s",
      "iso_Z_30": "61",
      "iso_N_30": "94",
      "iso_A_30": "155",

      "iso_31": "Pm-156",
      "iso_mass_31": "155.93106",
      "decay_type_31": "B-",
      "iso_half_31": "26.7 s",
      "iso_Z_31": "61",
      "iso_N_31": "95",
      "iso_A_31": "156",

      "iso_32": "Pm-157",
      "iso_mass_32": "156.93304",
      "decay_type_32": "B-",
      "iso_half_32": "10.6 s",
      "iso_Z_32": "61",
      "iso_N_32": "96",
      "iso_A_32": "157",

      "iso_33": "Pm-158",
      "iso_mass_33": "157.93656",
      "decay_type_33": "B-",
      "iso_half_33": "4.6 s",
      "iso_Z_33": "61",
      "iso_N_33": "97",
      "iso_A_33": "158",

      "iso_34": "Pm-159",
      "iso_mass_34": "158.93897",
      "decay_type_34": "B-",
      "iso_half_34": "1.5 s",
      "iso_Z_34": "61",
      "iso_N_34": "98",
      "iso_A_34": "159",

      "iso_35": "Pm-160",
      "iso_mass_35": "159.94299",
      "decay_type_35": "B-",
      "iso_half_35": "1.2 s",
      "iso_Z_35": "61",
      "iso_N_35": "99",
      "iso_A_35": "160",

      "iso_36": "Pm-161",
      "iso_mass_36": "160.94586",
      "decay_type_36": "B-",
      "iso_half_36": "0.7 s",
      "iso_Z_36": "61",
      "iso_N_36": "100",
      "iso_A_36": "161",

      "iso_37": "Pm-162",
      "iso_mass_37": "161.95029",
      "decay_type_37": "B-",
      "iso_half_37": "0.5 s",
      "iso_Z_37": "61",
      "iso_N_37": "101",
      "iso_A_37": "162",

      "iso_38": "Pm-163",
      "iso_mass_38": "162.95368",
      "decay_type_38": "B-",
      "iso_half_38": "0.3 s",
      "iso_Z_38": "61",
      "iso_N_38": "102",
      "iso_A_38": "163",

      "iso_39": "Pm-164",
      "iso_mass_39": "163.95846",
      "decay_type_39": "B-",
      "iso_half_39": "0.2 s",
      "iso_Z_39": "61",
      "iso_N_39": "103",
      "iso_A_39": "164"
  }
]