[
  {
    "element_code": "AApsTsVYNFpLwRdSFZZ",
    "wikilink": "https://en.wikipedia.org/wiki/Radium",
    "link": "https://upload.wikimedia.org/wikipedia/commons/b/bb/Radium226.jpg",
    "description": "Radium is a chemical element with the symbol Ra and atomic number 88. It is the sixth element in group 2 of the periodic table, also known as the alkaline earth metals. Pure radium is silvery-white, but it readily reacts with nitrogen (rather than oxygen) on exposure to air, forming a black surface layer of radium nitride (Ra3N2). All isotopes of radium are highly radioactive, with the most stable isotope being radium-226, which has a half-life of 1600 years and decays into radon gas (specifically the isotope radon-222). When radium decays, ionizing radiation is a product, which can excite fluorescent chemicals and cause radioluminescence.",
    "element": "Radium",
    "short": "Ra",
    "element_year": "Marie Curie",
    "element_discovered_name": "1898",
    "element_group": "Alkaline Earth Metals",
    "element_appearance": "Silvery white metallic",
    "element_electrons": "88",
    "element_protons": "88",
    "element_neutron_common": "138",
    "radioactive": "Yes",
    "neutron_cross_sectional": "12.8 (b)",
    "electrical_type": "Conductor",
    "resistivity": "1 μΩm",
    "resistivity_mult": "0.000001",
    "magnetic_type": "---",
    "superconducting_point": "---",
    "element_atomic_number": "88",
    "element_atomicmass": "226 (u)",
    "element_density": "5.5  (g/cm^3)",
    "element_electronegativty": "0.9",
    "element_block": "s - block",
    "element_shells_electrons": "K2 L8 M18 N32 O18 P8 Q2 R0",
    "element_model": "https://upload.wikimedia.org/wikipedia/commons/thumb/b/b3/Electron_shell_088_Radium_-_no_label.svg/800px-Electron_shell_088_Radium_-_no_label.svg.png",
    "element_boiling_kelvin": "2010 (K)",
    "element_boiling_celsius": "1737 (°C)",
    "element_boiling_fahrenheit": "3159 (°F)",
    "element_melting_kelvin": "973 (K)",
    "element_melting_celsius": "700 (°C)",
    "element_melting_fahrenheit": "1292 (°F)",
    "element_electron_config": "7s^2",
    "element_ion_charge": "Ra^2+",
    "element_ionization_energy1": "5.2784 (eV)",
    "element_ionization_energy2": "10.14716 (eV)",
    "element_atomic_radius_e": "215 (pm)",
    "element_atomic_radius": "--- (pm)",
    "element_covalent_radius": "---",
    "element_van_der_waals": "283 (pm)",
    "element_phase": "Solid",
    "element_fusion_heat": "8.5 (kJ/mol)",
    "element_specific_heat_capacity": "--- J/(g·K)",
    "element_vaporization_heat": "113 (kJ/mol)",
    "oxidation_state_neg": "",
    "oxidation_state_pos": "2",
    "cas_number": "7440-14-4",
    "eg_number": "231-123-0",
    "iso_1": "Radium-201",
    "iso_mass_1": "201",
    "decay_type_1": "α",
    "iso_half_1": "4 milliseconds",
    "iso_Z_1": "88",
    "iso_N_1": "113",
    "iso_A_1": "201",
    "iso_2": "Radium-202",
    "iso_mass_2": "202",
    "decay_type_2": "α",
    "iso_half_2": "3.8 milliseconds",
    "iso_Z_2": "88",
    "iso_N_2": "114",
    "iso_A_2": "202",
    "iso_3": "Radium-203",
    "iso_mass_3": "203",
    "decay_type_3": "α",
    "iso_half_3": "4 milliseconds",
    "iso_Z_3": "88",
    "iso_N_3": "115",
    "iso_A_3": "203",
    "iso_4": "Radium-204",
    "iso_mass_4": "204",
    "decay_type_4": "α",
    "iso_half_4": "60 milliseconds",
    "iso_Z_4": "88",
    "iso_N_4": "116",
    "iso_A_4": "204",
    "iso_5": "Radium-205",
    "iso_mass_5": "205",
    "decay_type_5": "α",
    "iso_half_5": "220 milliseconds",
    "iso_Z_5": "88",
    "iso_N_5": "117",
    "iso_A_5": "205",
    "iso_6": "Radium-206",
    "iso_mass_6": "206",
    "decay_type_6": "α",
    "iso_half_6": "0.24 seconds",
    "iso_Z_6": "88",
    "iso_N_6": "118",
    "iso_A_6": "206",
    "iso_7": "Radium-207",
    "iso_mass_7": "207",
    "decay_type_7": "α",
    "iso_half_7": "1.3 seconds",
    "iso_Z_7": "88",
    "iso_N_7": "119",
    "iso_A_7": "207",
    "iso_8": "Radium-208",
    "iso_mass_8": "208",
    "decay_type_8": "α",
    "iso_half_8": "1.3 seconds",
    "iso_Z_8": "88",
    "iso_N_8": "120",
    "iso_A_8": "208",
    "iso_9": "Radium-209",
    "iso_mass_9": "209",
    "decay_type_9": "α",
    "iso_half_9": "4.6 seconds",
    "iso_Z_9": "88",
    "iso_N_9": "121",
    "iso_A_9": "209",
    "iso_10": "Radium-210",
    "iso_mass_10": "210",
    "decay_type_10": "α",
    "iso_half_10": "3.7 seconds",
    "iso_Z_10": "88",
    "iso_N_10": "122",
    "iso_A_10": "210",
    "iso_11": "Radium-211",
    "iso_mass_11": "211",
    "decay_type_11": "α",
    "iso_half_11": "13 seconds",
    "iso_Z_11": "88",
    "iso_N_11": "123",
    "iso_A_11": "211",
    "iso_12": "Radium-212",
    "iso_mass_12": "212",
    "decay_type_12": "α",
    "iso_half_12": "13 seconds",
    "iso_Z_12": "88",
    "iso_N_12": "124",
    "iso_A_12": "212",
    "iso_13": "Radium-213",
    "iso_mass_13": "213",
    "decay_type_13": "α",
    "iso_half_13": "2.74 minutes",
    "iso_Z_13": "88",
    "iso_N_13": "125",
    "iso_A_13": "213",
    "iso_14": "Radium-214",
    "iso_mass_14": "214",
    "decay_type_14": "α",
    "iso_half_14": "2.46 seconds",
    "iso_Z_14": "88",
    "iso_N_14": "126",
    "iso_A_14": "214",
    "iso_15": "Radium-215",
    "iso_mass_15": "215",
    "decay_type_15": "α",
    "iso_half_15": "1.55 milliseconds",
    "iso_Z_15": "88",
    "iso_N_15": "127",
    "iso_A_15": "215",
    "iso_16": "Radium-216",
    "iso_mass_16": "216",
    "decay_type_16": "α",
    "iso_half_16": "182 nanoseconds",
    "iso_Z_16": "88",
    "iso_N_16": "128",
    "iso_A_16": "216",
    "iso_17": "Radium-217",
    "iso_mass_17": "217",
    "decay_type_17": "α",
    "iso_half_17": "1.63 microseconds",
    "iso_Z_17": "88",
    "iso_N_17": "129",
    "iso_A_17": "217",
    "iso_18": "Radium-218",
    "iso_mass_18": "218",
    "decay_type_18": "α",
    "iso_half_18": "25.2 microseconds",
    "iso_Z_18": "88",
    "iso_N_18": "130",
    "iso_A_18": "218",
    "iso_19": "Radium-219",
    "iso_mass_19": "219",
    "decay_type_19": "α",
    "iso_half_19": "10 milliseconds",
    "iso_Z_19": "88",
    "iso_N_19": "131",
    "iso_A_19": "219",
    "iso_20": "Radium-220",
    "iso_mass_20": "220",
    "decay_type_20": "α",
    "iso_half_20": "17.9 milliseconds",
    "iso_Z_20": "88",
    "iso_N_20": "132",
    "iso_A_20": "220",
    "iso_21": "Radium-221",
    "iso_mass_21": "221",
    "decay_type_21": "α",
    "iso_half_21": "28 seconds",
    "iso_Z_21": "88",
    "iso_N_21": "133",
    "iso_A_21": "221",
    "iso_22": "Radium-222",
    "iso_mass_22": "222",
    "decay_type_22": "α",
    "iso_half_22": "38 seconds",
    "iso_Z_22": "88",
    "iso_N_22": "134",
    "iso_A_22": "222",
    "iso_23": "Radium-223",
    "iso_mass_23": "223",
    "decay_type_23": "α",
    "iso_half_23": "11.43 days",
    "iso_Z_23": "88",
    "iso_N_23": "135",
    "iso_A_23": "223",
    "iso_24": "Radium-224",
    "iso_mass_24": "224",
    "decay_type_24": "α",
    "iso_half_24": "3.6319 days",
    "iso_Z_24": "88",
    "iso_N_24": "136",
    "iso_A_24": "224",
    "iso_25": "Radium-225",
    "iso_mass_25": "225",
    "decay_type_25": "B-",
    "iso_half_25": "14.9 days",
    "iso_Z_25": "88",
    "iso_N_25": "137",
    "iso_A_25": "225",
    "iso_26": "Radium-226",
    "iso_mass_26": "226",
    "decay_type_26": "α",
    "iso_half_26": "1600 years",
    "iso_Z_26": "88",
    "iso_N_26": "138",
    "iso_A_26": "226",
    "iso_27": "Radium-227",
    "iso_mass_27": "227",
    "decay_type_27": "B-",
    "iso_half_27": "42.2 minutes",
    "iso_Z_27": "88",
    "iso_N_27": "139",
    "iso_A_27": "227",
    "iso_28": "Radium-228",
    "iso_mass_28": "228",
    "decay_type_28": "B-",
    "iso_half_28": "5.75 years",
    "iso_Z_28": "88",
    "iso_N_28": "140",
    "iso_A_28": "228",
    "iso_29": "Radium-229",
    "iso_mass_29": "229",
    "decay_type_29": "B-",
    "iso_half_29": "4.0 minutes",
    "iso_Z_29": "88",
    "iso_N_29": "141",
    "iso_A_29": "229",
    "iso_30": "Radium-230",
    "iso_mass_30": "230",
    "decay_type_30": "B-",
    "iso_half_30": "93.0 seconds",
    "iso_Z_30": "88",
    "iso_N_30": "142",
    "iso_A_30": "230",
    "iso_31": "Radium-231",
    "iso_mass_31": "231",
    "decay_type_31": "B-",
    "iso_half_31": "103.0 seconds",
    "iso_Z_31": "88",
    "iso_N_31": "143",
    "iso_A_31": "231",
    "iso_32": "Radium-232",
    "iso_mass_32": "232",
    "decay_type_32": "B-",
    "iso_half_32": "1.5 minutes",
    "iso_Z_32": "88",
    "iso_N_32": "144",
    "iso_A_32": "232",
    "iso_33": "Radium-233",
    "iso_mass_33": "233",
    "decay_type_33": "B-",
    "iso_half_33": "30.0 seconds",
    "iso_Z_33": "88",
    "iso_N_33": "145",
    "iso_A_33": "233",
    "iso_34": "Radium-234",
    "iso_mass_34": "234",
    "decay_type_34": "B-",
    "iso_half_34": "2.3 hours",
    "iso_Z_34": "88",
    "iso_N_34": "146",
    "iso_A_34": "234",
    "crystal_structure": "Body-centered cubic (bcc)",
    "lattice_constants": {
      "a": "5.147 Å"
    },
    "debye_temperature": {
      "low_temperature_limit": "120 K",
      "room_temperature": "110 K"
    }
  }
]