[
  {
"element_code": "AAjsgb2SBmZSTowvFZZ",
    "wikilink": "https://en.wikipedia.org/wiki/Radon",
    "link": "http://images-of-elements.com/radon.jpg",
    "description": "Radon is a chemical element with the symbol Rn and atomic number 86. It is a radioactive, colorless, odorless, tasteless noble gas. It occurs naturally in minute quantities as an intermediate step in the normal radioactive decay chains through which thorium and uranium slowly decay into lead and various other short-lived radioactive elements. Radon itself is the immediate decay product of radium. Its most stable isotope, Rn-222, has a half-life of 3.8 days, making radon one of the rarest elements since it decays so quickly. Since thorium and uranium are two of the most common radioactive elements on Earth, and they have three isotopes with very long half-lives (on the order of several billion years) radon will be present on Earth long into the future in spite of its short half-life as it is continually being generated. The decay of radon produces many other short-lived nuclides known as radon daughters, ending at stable isotopes of lead.",

    "element": "Radon",
    "short": "Rn",
    "element_year": "1940",
    "element_discovered_name": "Dale R. Corson",
    "element_group": "Halogens",
    "element_appearance": "unknown, probably metallic",
    "element_electrons": "86",
    "element_protons": "86",
    "element_neutron_common": "136",

    "radioactive": "Yes",
    "neutron_cross_sectional": "0.72 (b)",

    "electrical_type": "---",
    "resistivity": "---",
    "resistivity_mult": "---",
    "magnetic_type": "---",
    "superconducting_point": "---",

    "element_atomic_number": "86",
    "element_atomicmass": "222 (u)",
    "element_density": "0.0098 (g/cm^3)",
    "element_electronegativty": "2.2",
    "element_block": "p - block",
    "element_shells_electrons": "K2 L8 M18 N32 O18 P8 Q0 R0",
    "element_model": "https://upload.wikimedia.org/wikipedia/commons/thumb/0/04/Electron_shell_086_Radon_-_no_label.svg/800px-Electron_shell_086_Radon_-_no_label.svg.png",

    "element_boiling_kelvin": "211.5 (K)",
    "element_boiling_celsius": "−61.7 (°C)",
    "element_boiling_fahrenheit": "−79.1 (°F)",
    "element_melting_kelvin": "202 (K)",
    "element_melting_celsius": "−71 (°C)",
    "element_melting_fahrenheit": "−96 (°F)",

    "element_electron_config": "4f^14, 5d^10, 6s^2, 6p^6",
    "element_ion_charge": "---",
    "element_ionization_energy1": "10.74850 (eV)",
    "element_atomic_radius_e": "--- (pm)",
    "element_atomic_radius": "120 (pm)",
    "element_covalent_radius": "220",
    "element_van_der_waals": "145 (pm)",

    "element_phase": "Gas",
    "element_fusion_heat": "3.247 (kJ/mol)",
    "element_specific_heat_capacity": "0.094 J/(g·K)",
    "element_vaporization_heat": "18.10 (kJ/mol)",

    "oxidation_state_neg": "",
    "oxidation_state_pos": "2 6",

    "cas_number": "10043-92-2",
    "eg_number": "233-136-6",


      "iso_1": "Radon-193",
      "iso_mass_1": "193",
      "decay_type_1": "α",
      "iso_half_1": "1.15 milliseconds",
      "iso_Z_1": "86",
      "iso_N_1": "107",
      "iso_A_1": "193",

      "iso_2": "Radon-194",
      "iso_mass_2": "194",
      "decay_type_2": "α",
      "iso_half_2": "0.78 milliseconds",
      "iso_Z_2": "86",
      "iso_N_2": "108",
      "iso_A_2": "194",

      "iso_3": "Radon-195",
      "iso_mass_3": "195",
      "decay_type_3": "α",
      "iso_half_3": "6 milliseconds",
      "iso_Z_3": "86",
      "iso_N_3": "109",
      "iso_A_3": "195",

      "iso_4": "Radon-196",
      "iso_mass_4": "196",
      "decay_type_4": "α",
      "iso_half_4": "4.7 milliseconds",
      "iso_Z_4": "86",
      "iso_N_4": "110",
      "iso_A_4": "196",

      "iso_5": "Radon-197",
      "iso_mass_5": "197",
      "decay_type_5": "α",
      "iso_half_5": "66 milliseconds",
      "iso_Z_5": "86",
      "iso_N_5": "111",
      "iso_A_5": "197",

      "iso_6": "Radon-198",
      "iso_mass_6": "198",
      "decay_type_6": "α",
      "iso_half_6": "65 milliseconds",
      "iso_Z_6": "86",
      "iso_N_6": "112",
      "iso_A_6": "198",

      "iso_7": "Radon-199",
      "iso_mass_7": "199",
      "decay_type_7": "α",
      "iso_half_7": "620 milliseconds",
      "iso_Z_7": "86",
      "iso_N_7": "113",
      "iso_A_7": "199",

      "iso_8": "Radon-200",
      "iso_mass_8": "200",
      "decay_type_8": "α",
      "iso_half_8": "0.96 seconds",
      "iso_Z_8": "86",
      "iso_N_8": "114",
      "iso_A_8": "200",

      "iso_9": "Radon-201",
      "iso_mass_9": "201",
      "decay_type_9": "α",
      "iso_half_9": "7 seconds",
      "iso_Z_9": "86",
      "iso_N_9": "115",
      "iso_A_9": "201",

      "iso_10": "Radon-202",
      "iso_mass_10": "202",
      "decay_type_10": "α",
      "iso_half_10": "9.94 seconds",
      "iso_Z_10": "86",
      "iso_N_10": "116",
      "iso_A_10": "202",

      "iso_11": "Radon-203",
      "iso_mass_11": "203",
      "decay_type_11": "α",
      "iso_half_11": "44.2 seconds",
      "iso_Z_11": "86",
      "iso_N_11": "117",
      "iso_A_11": "203",

      "iso_12": "Radon-204",
      "iso_mass_12": "204",
      "decay_type_12": "α",
      "iso_half_12": "1.17 minutes",
      "iso_Z_12": "86",
      "iso_N_12": "118",
      "iso_A_12": "204",

      "iso_13": "Radon-205",
      "iso_mass_13": "205",
      "decay_type_13": "B+",
      "iso_half_13": "170 seconds",
      "iso_Z_13": "86",
      "iso_N_13": "119",
      "iso_A_13": "205",

      "iso_14": "Radon-206",
      "iso_mass_14": "206",
      "decay_type_14": "α",
      "iso_half_14": "5.67 minutes",
      "iso_Z_14": "86",
      "iso_N_14": "120",
      "iso_A_14": "206",

      "iso_15": "Radon-207",
      "iso_mass_15": "207",
      "decay_type_15": "B+",
      "iso_half_15": "9.25 minutes",
      "iso_Z_15": "86",
      "iso_N_15": "121",
      "iso_A_15": "207",

      "iso_16": "Radon-208",
      "iso_mass_16": "208",
      "decay_type_16": "α",
      "iso_half_16": "24.35 minutes",
      "iso_Z_16": "86",
      "iso_N_16": "122",
      "iso_A_16": "208",

      "iso_17": "Radon-209",
      "iso_mass_17": "209",
      "decay_type_17": "B+",
      "iso_half_17": "28.5 minutes",
      "iso_Z_17": "86",
      "iso_N_17": "123",
      "iso_A_17": "209",

      "iso_18": "Radon-210",
      "iso_mass_18": "210",
      "decay_type_18": "α",
      "iso_half_18": "2.4 hours",
      "iso_Z_18": "86",
      "iso_N_18": "124",
      "iso_A_18": "210",

      "iso_19": "Radon-211",
      "iso_mass_19": "211",
      "decay_type_19": "B+",
      "iso_half_19": "14.6 hours",
      "iso_Z_19": "86",
      "iso_N_19": "125",
      "iso_A_19": "211",

      "iso_20": "Radon-212",
      "iso_mass_20": "212",
      "decay_type_20": "α",
      "iso_half_20": "23.9 minutes",
      "iso_Z_20": "86",
      "iso_N_20": "126",
      "iso_A_20": "212",

      "iso_21": "Radon-213",
      "iso_mass_21": "213",
      "decay_type_21": "α",
      "iso_half_21": "19.5 milliseconds",
      "iso_Z_21": "86",
      "iso_N_21": "127",
      "iso_A_21": "213",

      "iso_22": "Radon-214",
      "iso_mass_22": "214",
      "decay_type_22": "α",
      "iso_half_22": "0.27 milliseconds",
      "iso_Z_22": "86",
      "iso_N_22": "128",
      "iso_A_22": "214",

      "iso_23": "Radon-215",
      "iso_mass_23": "215",
      "decay_type_23": "α",
      "iso_half_23": "1.5 milliseconds",
      "iso_Z_23": "86",
      "iso_N_23": "129",
      "iso_A_23": "215",

      "iso_24": "Radon-216",
      "iso_mass_24": "216",
      "decay_type_24": "α",
      "iso_half_24": "45 milliseconds",
      "iso_Z_24": "86",
      "iso_N_24": "130",
      "iso_A_24": "216",

      "iso_25": "Radon-217",
      "iso_mass_25": "217",
      "decay_type_25": "α",
      "iso_half_25": "0.54 milliseconds",
      "iso_Z_25": "86",
      "iso_N_25": "131",
      "iso_A_25": "217",

      "iso_26": "Radon-218",
      "iso_mass_26": "218",
      "decay_type_26": "α",
      "iso_half_26": "35 milliseconds",
      "iso_Z_26": "86",
      "iso_N_26": "132",
      "iso_A_26": "218",

      "iso_26": "Radon-218",
      "iso_mass_26": "218",
      "decay_type_26": "α",
      "iso_half_26": "35 milliseconds",
      "iso_Z_26": "86",
      "iso_N_26": "132",
      "iso_A_26": "218",

      "iso_27": "Radon-219",
      "iso_mass_27": "219",
      "decay_type_27": "α",
      "iso_half_27": "3.96 seconds",
      "iso_Z_27": "86",
      "iso_N_27": "133",
      "iso_A_27": "219",

      "iso_28": "Radon-220",
      "iso_mass_28": "220",
      "decay_type_28": "α",
      "iso_half_28": "55.6 seconds",
      "iso_Z_28": "86",
      "iso_N_28": "134",
      "iso_A_28": "220",

      "iso_29": "Radon-221",
      "iso_mass_29": "221",
      "decay_type_29": "α",
      "iso_half_29": "25.0 minutes",
      "iso_Z_29": "86",
      "iso_N_29": "135",
      "iso_A_29": "221",

      "iso_30": "Radon-222",
      "iso_mass_30": "222",
      "decay_type_30": "α",
      "iso_half_30": "3.823 days",
      "iso_Z_30": "86",
      "iso_N_30": "136",
      "iso_A_30": "222",

      "iso_31": "Radon-223",
      "iso_mass_31": "223",
      "decay_type_31": "α",
      "iso_half_31": "24.3 minutes",
      "iso_Z_31": "86",
      "iso_N_31": "137",
      "iso_A_31": "223",

      "iso_32": "Radon-224",
      "iso_mass_32": "224",
      "decay_type_32": "α",
      "iso_half_32": "107 minutes",
      "iso_Z_32": "86",
      "iso_N_32": "138",
      "iso_A_32": "224",

      "iso_33": "Radon-225",
      "iso_mass_33": "225",
      "decay_type_33": "α",
      "iso_half_33": "4.66 minutes",
      "iso_Z_33": "86",
      "iso_N_33": "139",
      "iso_A_33": "225",

      "iso_34": "Radon-226",
      "iso_mass_34": "226",
      "decay_type_34": "α",
      "iso_half_34": "7.4 minutes",
      "iso_Z_34": "86",
      "iso_N_34": "140",
      "iso_A_34": "226",

      "iso_35": "Radon-227",
      "iso_mass_35": "227",
      "decay_type_35": "α",
      "iso_half_35": "20.8 minutes",
      "iso_Z_35": "86",
      "iso_N_35": "141",
      "iso_A_35": "227",

      "iso_36": "Radon-228",
      "iso_mass_36": "228",
      "decay_type_36": "α",
      "iso_half_36": "65.0 seconds",
      "iso_Z_36": "86",
      "iso_N_36": "142",
      "iso_A_36": "228",

      "iso_37": "Radon-229",
      "iso_mass_37": "229",
      "decay_type_37": "α",
      "iso_half_37": "12.0 seconds",
      "iso_Z_37": "86",
      "iso_N_37": "143",
      "iso_A_37": "229",

      "iso_38": "Radon-230",
      "iso_mass_38": "230",
      "decay_type_38": "α",
      "iso_half_38": "93.0 seconds",
      "iso_Z_38": "86",
      "iso_N_38": "144",
      "iso_A_38": "230",

      "iso_39": "Radon-231",
      "iso_mass_39": "231",
      "decay_type_39": "α",
      "iso_half_39": "30.0 seconds",
      "iso_Z_39": "86",
      "iso_N_39": "145",
      "iso_A_39": "231",

      "iso_40": "Radon-232",
      "iso_mass_40": "232",
      "decay_type_40": "α",
      "iso_half_40": "2.0 minutes",
      "iso_Z_40": "86",
      "iso_N_40": "146",
      "iso_A_40": "232"
  }
]