[
  {
"element_code": "AAxibQtfkRYgxD3JVZZ",
    "wikilink": "https://en.wikipedia.org/wiki/Rhenium",
    "link": "https://upload.wikimedia.org/wikipedia/commons/thumb/7/71/Rhenium_single_crystal_bar_and_1cm3_cube.jpg/1024px-Rhenium_single_crystal_bar_and_1cm3_cube.jpg",
    "description":"Rhenium is a chemical element with the symbol Re and atomic number 75. It is a silvery-gray, heavy, third-row transition metal in group 7 of the periodic table. With an estimated average concentration of 1 part per billion (ppb), rhenium is one of the rarest elements in the Earth's crust. Rhenium has the third-highest melting point and second-highest boiling point of any stable element at 5903 K. Rhenium resembles manganese and technetium chemically and is mainly obtained as a by-product of the extraction and refinement of molybdenum and copper ores. Rhenium shows in its compounds a wide variety of oxidation states ranging from −1 to +7.",

    "element": "Rhenium",
    "short": "Re",
    "element_year": "1908",
    "element_discovered_name": "Masataka Ogawa",
    "element_group": "Transition Metals",
    "element_appearance": "Silvery Grayish",
    "element_electrons": "75",
    "element_protons": "75",
    "element_neutron_common": "112",

    "radioactive": "No",
    "neutron_cross_sectional": "89.7 (b)",

    "electrical_type": "Conductor",
    "resistivity": "1.8",
    "resistivity_mult": "0.0000001",
    "magnetic_type": "Paramagnetic",
    "superconducting_point": "1.7",

    "element_atomic_number": "75",
    "element_atomicmass": "186.207 (u)",
    "element_density": "21.02 (g/cm^3)",
    "element_electronegativty": "1.9",
    "element_block": "d - block",
    "element_shells_electrons": "K2 L8 M8 N32 O13 P2 Q0 R0",
    "element_model": "https://upload.wikimedia.org/wikipedia/commons/thumb/e/e8/Electron_shell_075_Rhenium_-_no_label.svg/800px-Electron_shell_075_Rhenium_-_no_label.svg.png",

    "element_boiling_kelvin": "5903 (K)",
    "element_boiling_celsius": "5630 (°C)",
    "element_boiling_fahrenheit": "10170 (°F)",
    "element_melting_kelvin": "3459 (K)",
    "element_melting_celsius": "3186 (°C)",
    "element_melting_fahrenheit": "5767 (°F)",

    "element_electron_config": "4f^14, 5d^5, 6s^2",
    "element_ion_charge": "Re^7+",
    "element_ionization_energy1": "7.8335 (eV)",
    "element_atomic_radius_e": "135 (pm)",
    "element_atomic_radius": "188 (pm)",
    "element_covalent_radius": "159 (pm)",
    "element_van_der_waals": "--- (pm)",

    "element_phase": "Solid",
    "element_fusion_heat": "60.43 (kJ/mol)",
    "element_specific_heat_capacity": "0.137 J/(g·K)",
    "element_vaporization_heat": "704 (kJ/mol)",

    "oxidation_state_neg": "3 1 0",
    "oxidation_state_pos": "1 2 3 4 5 6 7",

    "speed_of_sound_gas": "---",
    "speed_of_sound_liquid": "---",
    "speed_of_sound_solid": "4700 (m/s) [20°C]",

    "mohs_hardness": "7.0",
    "vickers_hardness": "1350-7850 (MPa)",
    "brinell_hardness": "1320-2500 (MPa)",

    "young_modulus": "463 (GPa)",
    "poisson_ratio": "0.30",
    "bulk_modulus": "370 (GPa)",
    "shear_modulus": "178 (GPa)",

      "iso_1": "Re-159",
      "iso_mass_1": "158.98418",
      "decay_type_1": "p",
      "iso_half_1": "21 μs",
      "iso_Z_1": "75",
      "iso_N_1": "84",
      "iso_A_1": "159",

      "iso_2": "Re-160",
      "iso_mass_2": "159.98212",
      "decay_type_2": "p",
      "iso_half_2": "611 μs",
      "iso_Z_2": "75",
      "iso_N_2": "85",
      "iso_A_2": "160",

      "iso_3": "Re-161",
      "iso_mass_3": "160.97759",
      "decay_type_3": "p",
      "iso_half_3": "0.37 ms",
      "iso_Z_3": "75",
      "iso_N_3": "86",
      "iso_A_3": "161",

      "iso_4": "Re-162",
      "iso_mass_4": "161.97600",
      "decay_type_4": "α",
      "iso_half_4": "107 ms",
      "iso_Z_4": "75",
      "iso_N_4": "87",
      "iso_A_4": "162",

      "iso_5": "Re-163",
      "iso_mass_5": "162.97208",
      "decay_type_5": "B+",
      "iso_half_5": "390 ms",
      "iso_Z_5": "75",
      "iso_N_5": "88",
      "iso_A_5": "163",

      "iso_6": "Re-164",
      "iso_mass_6": "163.97032",
      "decay_type_6": "alpha",
      "iso_half_6": "0.53 s",
      "iso_Z_6": "75",
      "iso_N_6": "89",
      "iso_A_6": "164",

      "iso_7": "Re-165",
      "iso_mass_7": "164.96709",
      "decay_type_7": "B+",
      "iso_half_7": "1 s",
      "iso_Z_7": "75",
      "iso_N_7": "90",
      "iso_A_7": "165",

      "iso_8": "Re-166",
      "iso_mass_8": "165.96581",
      "decay_type_8": "B+",
      "iso_half_8": "2 s",
      "iso_Z_8": "75",
      "iso_N_8": "91",
      "iso_A_8": "166",

      "iso_9": "Re-167",
      "iso_mass_9": "166.96260",
      "decay_type_9": "alpha",
      "iso_half_9": "3.4 s",
      "iso_Z_9": "75",
      "iso_N_9": "92",
      "iso_A_9": "167",

      "iso_10": "Re-168",
      "iso_mass_10": "167.96157",
      "decay_type_10": "B+",
      "iso_half_10": "4.4 s",
      "iso_Z_10": "75",
      "iso_N_10": "93",
      "iso_A_10": "168",

      "iso_11": "Re-169",
      "iso_mass_11": "168.95879",
      "decay_type_11": "B+",
      "iso_half_11": "8.1 s",
      "iso_Z_11": "75",
      "iso_N_11": "94",
      "iso_A_11": "169",

      "iso_12": "Re-170",
      "iso_mass_12": "169.95822",
      "decay_type_12": "B+",
      "iso_half_12": "9.2 s",
      "iso_Z_12": "75",
      "iso_N_12": "95",
      "iso_A_12": "170",

      "iso_13": "Re-171",
      "iso_mass_13": "170.95572",
      "decay_type_13": "B+",
      "iso_half_13": "15.2 s",
      "iso_Z_13": "75",
      "iso_N_13": "96",
      "iso_A_13": "171",

      "iso_14": "Re-172",
      "iso_mass_14": "171.95542",
      "decay_type_14": "B+",
      "iso_half_14": "15 s",
      "iso_Z_14": "75",
      "iso_N_14": "97",
      "iso_A_14": "172",

      "iso_15": "Re-173",
      "iso_mass_15": "172.95324",
      "decay_type_15": "B+",
      "iso_half_15": "1.98 min",
      "iso_Z_15": "75",
      "iso_N_15": "98",
      "iso_A_15": "173",

      "iso_16": "Re-174",
      "iso_mass_16": "173.95312",
      "decay_type_16": "B+",
      "iso_half_16": "2.4 min",
      "iso_Z_16": "75",
      "iso_N_16": "99",
      "iso_A_16": "174",

      "iso_17": "Re-175",
      "iso_mass_17": "174.95138",
      "decay_type_17": "B+",
      "iso_half_17": "5.89 min",
      "iso_Z_17": "75",
      "iso_N_17": "100",
      "iso_A_17": "175",

      "iso_18": "Re-176",
      "iso_mass_18": "175.95162",
      "decay_type_18": "B+",
      "iso_half_18": "5.3 min",
      "iso_Z_18": "75",
      "iso_N_18": "101",
      "iso_A_18": "176",

      "iso_19": "Re-177",
      "iso_mass_19": "176.95033",
      "decay_type_19": "B+",
      "iso_half_19": "14 min",
      "iso_Z_19": "75",
      "iso_N_19": "102",
      "iso_A_19": "177",

      "iso_20": "Re-178",
      "iso_mass_20": "177.95099",
      "decay_type_20": "B+",
      "iso_half_20": "13.2 min",
      "iso_Z_20": "75",
      "iso_N_20": "103",
      "iso_A_20": "178",

      "iso_21": "Re-179",
      "iso_mass_21": "178.94998",
      "decay_type_21": "B+",
      "iso_half_21": "19.5 min",
      "iso_Z_21": "75",
      "iso_N_21": "104",
      "iso_A_21": "179",

      "iso_22": "Re-180",
      "iso_mass_22": "179.95079",
      "decay_type_22": "B+",
      "iso_half_22": "19.5 min",
      "iso_Z_22": "75",
      "iso_N_22": "105",
      "iso_A_22": "180",

      "iso_23": "Re-181",
      "iso_mass_23": "180.95006",
      "decay_type_23": "B+",
      "iso_half_23": "19.9 min",
      "iso_Z_23": "75",
      "iso_N_23": "106",
      "iso_A_23": "181",

      "iso_24": "Re-182",
      "iso_mass_24": "181.95121",
      "decay_type_24": "B+",
      "iso_half_24": "64 h",
      "iso_Z_24": "75",
      "iso_N_24": "107",
      "iso_A_24": "182",

      "iso_25": "Re-183",
      "iso_mass_25": "182.95137",
      "decay_type_25": "B-",
      "iso_half_25": "70 d",
      "iso_Z_25": "75",
      "iso_N_25": "108",
      "iso_A_25": "183",

      "iso_26": "Re-184",
      "iso_mass_26": "183.95252",
      "decay_type_26": "B-",
      "iso_half_26": "38 d",
      "iso_Z_26": "75",
      "iso_N_26": "109",
      "iso_A_26": "184",

      "iso_27": "Re-185",
      "iso_mass_27": "184.95295",
      "decay_type_27": "stable",
      "iso_half_27": "N/A",
      "iso_Z_27": "75",
      "iso_N_27": "110",
      "iso_A_27": "185",

      "iso_28": "Re-186",
      "iso_mass_28": "185.95436",
      "decay_type_28": "B-",
      "iso_half_28": "3.7186 × 10^10 y",
      "iso_Z_28": "75",
      "iso_N_28": "111",
      "iso_A_28": "186",

      "iso_29": "Re-187",
      "iso_mass_29": "186.95575",
      "decay_type_29": "stable",
      "iso_half_29": "N/A",
      "iso_Z_29": "75",
      "iso_N_29": "112",
      "iso_A_29": "187",

      "iso_30": "Re-188",
      "iso_mass_30": "187.95811",
      "decay_type_30": "B-",
      "iso_half_30": "17.0 h",
      "iso_Z_30": "75",
      "iso_N_30": "113",
      "iso_A_30": "188",

      "iso_31": "Re-189",
      "iso_mass_31": "188.95922",
      "decay_type_31": "B-",
      "iso_half_31": "24.3 h",
      "iso_Z_31": "75",
      "iso_N_31": "114",
      "iso_A_31": "189",

      "iso_32": "Re-190",
      "iso_mass_32": "189.96182",
      "decay_type_32": "B-",
      "iso_half_32": "3.1 m",
      "iso_Z_32": "75",
      "iso_N_32": "115",
      "iso_A_32": "190",

      "iso_33": "Re-191",
      "iso_mass_33": "190.96312",
      "decay_type_33": "B-",
      "iso_half_33": "9.8 m",
      "iso_Z_33": "75",
      "iso_N_33": "116",
      "iso_A_33": "191",

      "iso_34": "Re-192",
      "iso_mass_34": "191.96609",
      "decay_type_34": "B-",
      "iso_half_34": "4.3 m",
      "iso_Z_34": "75",
      "iso_N_34": "117",
      "iso_A_34": "192",

      "iso_35": "Re-193",
      "iso_mass_35": "192.96747",
      "decay_type_35": "B-",
      "iso_half_35": "2.8 m",
      "iso_Z_35": "75",
      "iso_N_35": "118",
      "iso_A_35": "193",

      "iso_36": "Re-194",
      "iso_mass_36": "193.97076",
      "decay_type_36": "B-",
      "iso_half_36": "2.2 m",
      "iso_Z_36": "75",
      "iso_N_36": "119",
      "iso_A_36": "194",

      "iso_37": "Re-195",
      "iso_mass_37": "194.97254",
      "decay_type_37": "B-",
      "iso_half_37": "40 s",
      "iso_Z_37": "75",
      "iso_N_37": "120",
      "iso_A_37": "195",

      "iso_38": "Re-196",
      "iso_mass_38": "195.97580",
      "decay_type_38": "B-",
      "iso_half_38": "1.2 m",
      "iso_Z_38": "75",
      "iso_N_38": "121",
      "iso_A_38": "196",

      "iso_39": "Re-197",
      "iso_mass_39": "196.97799",
      "decay_type_39": "B-",
      "iso_half_39": "1.5 m",
      "iso_Z_39": "75",
      "iso_N_39": "122",
      "iso_A_39": "197",

      "iso_40": "Re-198",
      "iso_mass_40": "197.98160",
      "decay_type_40": "B-",
      "iso_half_40": "1.1 m",
      "iso_Z_40": "75",
      "iso_N_40": "123",
      "iso_A_40": "198"
  }
]