[
  {
"element_code": "AAti2U4RYQViPe8gwZZ",
    "wikilink": "https://en.wikipedia.org/wiki/Rutherfordium",
    "link": "empty",
    "description": "Rutherfordium is a synthetic chemical element with the symbol Rf and atomic number 104, named after New Zealand physicist Ernest Rutherford. As a synthetic element, it is not found in nature and can only be created in a laboratory. It is radioactive; the most stable known isotope, Rf-267, has a half-life of approximately 1.3 hours.",

    "element": "Rutherfordium",
    "short": "Rf",
    "element_year": "1969",
    "element_discovered_name": "Lawrence Berkeley National Laboratory",
    "element_group": "Transition Metals",
    "element_appearance": "---",
    "element_electrons": "104",
    "element_protons": "104",
    "element_neutron_common": "163",

    "radioactive": "Yes",
    "neutron_cross_sectional": "767 (b)",

    "electrical_type": "---",
    "resistivity": "---",
    "resistivity_mult": "---",
    "magnetic_type": "---",
    "superconducting_point": "---",

    "element_atomic_number": "104",
    "element_atomicmass": "267 (u)",
    "element_density": "23.2 (g/cm^3)",
    "element_electronegativty": "---",
    "element_block": "d - block",
    "element_shells_electrons": "K2 L8 M18 N32 O32 P10 Q2 R0",
    "element_model": "https://upload.wikimedia.org/wikipedia/commons/thumb/f/f2/Electron_shell_104_Rutherfordium_-_no_label.svg/800px-Electron_shell_104_Rutherfordium_-_no_label.svg.png",

    "element_boiling_kelvin": "5800 (K)",
    "element_boiling_celsius": "5500 (°C)",
    "element_boiling_fahrenheit": "9900 (°F)",
    "element_melting_kelvin": "2400 (K)",
    "element_melting_celsius": "2100 (°C)",
    "element_melting_fahrenheit": "3800 (°F)",

    "element_electron_config": "5f^14, 6d^2. 7s^2",
    "element_ion_charge": "---",
    "element_ionization_energy1": "6.0 (eV)",
    "element_atomic_radius_e": "--- (pm)",
    "element_atomic_radius": "--- (pm)",
    "element_covalent_radius": "---",
    "element_van_der_waals": "--- (pm)",

    "element_phase": "Solid",
    "element_fusion_heat": "--- (kJ/mol)",
    "element_specific_heat_capacity": "--- J/(g·K)",
    "element_vaporization_heat": "--- (kJ/mol)",

    "oxidation_state_neg": "",
    "oxidation_state_pos": "4",

    "cas_number": "53850-36-1",
    "eg_number": null,

      "iso_1": "Rutherfordium-253",
      "iso_mass_1": "253",
      "decay_type_1": "SF",
      "iso_half_1": "9.9 milliseconds",
      "iso_Z_1": "104",
      "iso_N_1": "149",
      "iso_A_1": "253",

      "iso_2": "Rutherfordium-254",
      "iso_mass_2": "254",
      "decay_type_2": "SF",
      "iso_half_2": "23.2 microseconds",
      "iso_Z_2": "104",
      "iso_N_2": "150",
      "iso_A_2": "254",

      "iso_3": "Rutherfordium-255",
      "iso_mass_3": "255",
      "decay_type_3": "SF",
      "iso_half_3": "1.69 seconds",
      "iso_Z_3": "104",
      "iso_N_3": "151",
      "iso_A_3": "255",

      "iso_4": "Rutherfordium-256",
      "iso_mass_4": "256",
      "decay_type_4": "SF",
      "iso_half_4": "6.67 milliseconds",
      "iso_Z_4": "104",
      "iso_N_4": "152",
      "iso_A_4": "256",

      "iso_5": "Rutherfordium-257",
      "iso_mass_5": "257",
      "decay_type_5": "α",
      "iso_half_5": "6.2 seconds",
      "iso_Z_5": "104",
      "iso_N_5": "153",
      "iso_A_5": "257",

      "iso_6": "Rutherfordium-258",
      "iso_mass_6": "258",
      "decay_type_6": "SF",
      "iso_half_6": "12.5 milliseconds",
      "iso_Z_6": "104",
      "iso_N_6": "154",
      "iso_A_6": "258",

      "iso_7": "Rutherfordium-259",
      "iso_mass_7": "259",
      "decay_type_7": "α",
      "iso_half_7": "2.63 seconds",
      "iso_Z_7": "104",
      "iso_N_7": "155",
      "iso_A_7": "259",

      "iso_8": "Rutherfordium-260",
      "iso_mass_8": "260",
      "decay_type_8": "SF",
      "iso_half_8": "21 milliseconds",
      "iso_Z_8": "104",
      "iso_N_8": "156",
      "iso_A_8": "260",

      "iso_9": "Rutherfordium-261",
      "iso_mass_9": "261",
      "decay_type_9": "α",
      "iso_half_9": "75 seconds",
      "iso_Z_9": "104",
      "iso_N_9": "157",
      "iso_A_9": "261",

      "iso_10": "Rutherfordium-262",
      "iso_mass_10": "262",
      "decay_type_10": "SF",
      "iso_half_10": "210 milliseconds",
      "iso_Z_10": "104",
      "iso_N_10": "158",
      "iso_A_10": "262",

      "iso_11": "Rutherfordium-263",
      "iso_mass_11": "263",
      "decay_type_11": "SF",
      "iso_half_11": "11 minutes",
      "iso_Z_11": "104",
      "iso_N_11": "159",
      "iso_A_11": "263",

      "iso_12": "Rutherfordium-265",
      "iso_mass_12": "265",
      "decay_type_12": "SF",
      "iso_half_12": "1.1 minutes",
      "iso_Z_12": "104",
      "iso_N_12": "161",
      "iso_A_12": "265",

      "iso_13": "Rutherfordium-266",
      "iso_mass_13": "266",
      "decay_type_13": "SF",
      "iso_half_13": "23 seconds",
      "iso_Z_13": "104",
      "iso_N_13": "162",
      "iso_A_13": "266",

      "iso_14": "Rutherfordium-267",
      "iso_mass_14": "267",
      "decay_type_14": "SF",
      "iso_half_14": "48 minutes",
      "iso_Z_14": "104",
      "iso_N_14": "163",
      "iso_A_14": "267",

      "iso_15": "Rutherfordium-268",
      "iso_mass_15": "268",
      "decay_type_15": "SF",
      "iso_half_15": "1.4 seconds",
      "iso_Z_15": "104",
      "iso_N_15": "164",
      "iso_A_15": "268",

      "iso_16": "Rutherfordium-270",
      "iso_mass_16": "270",
      "decay_type_16": "SF",
      "iso_half_16": "20 milliseconds",
      "iso_Z_16": "104",
      "iso_N_16": "166",
      "iso_A_16": "270"
  }
]