[
  {
"element_code": "AAEw6PCVvw233bmbVZZ",
    "wikilink": "https://en.wikipedia.org/wiki/Samarium",
    "link": "https://upload.wikimedia.org/wikipedia/commons/8/88/Samarium-2.jpg",
    "description": "Samarium is a chemical element with the symbol Sm and atomic number 62. It is a moderately hard silvery metal that slowly oxidizes in air. Being a typical member of the lanthanide series, samarium usually assumes the oxidation state +3. Compounds of samarium(II) are also known, most notably the monoxide SmO, monochalcogenides SmS, SmSe and SmTe, as well as samarium(II) iodide. The last compound is a common reducing agent in chemical synthesis. Samarium has no significant biological role but is only slightly toxic",

    "element": "Samarium",
    "short": "Sm",
    "element_year": "1879",
    "element_discovered_name": "Lecoq de Boisbaudran",
    "element_group": "Lanthanoids",
    "element_appearance": "Silvery White",
    "element_electrons": "62",
    "element_protons": "62",
    "element_neutron_common": "90",

    "radioactive": "No",
    "neutron_cross_sectional": "5922 (b)",

    "electrical_type": "Conductor",
    "resistivity": "9.4",
    "resistivity_mult": "0.0000001",
    "magnetic_type": "Paramagnetic",
    "superconducting_point": "---",

    "element_atomic_number": "62",
    "element_atomicmass": "150.36 (u)",
    "element_density": "7.52 (g/cm^3)",
    "element_electronegativty": "1.17",
    "element_block": "f - block",
    "element_shells_electrons": "K2 L8 18 N24 O8 P2 Q0 R0",
    "element_model": "https://upload.wikimedia.org/wikipedia/commons/thumb/a/ab/Electron_shell_062_Samarium_-_no_label.svg/800px-Electron_shell_062_Samarium_-_no_label.svg.png",

    "element_boiling_kelvin": "2173 (K)",
    "element_boiling_celsius": "1900 (°C)",
    "element_boiling_fahrenheit": "3452 (°F)",
    "element_melting_kelvin": "1345 (K)",
    "element_melting_celsius": "1072 (°C)",
    "element_melting_fahrenheit": "1962 (°F)",

    "element_electron_config": "4f^6 6s^2",
    "element_ion_charge": "Sm^3+, Sm^2+",
    "element_ionization_energy1": "5.6436 (eV)",
    "element_ionization_energy2": "11.07 (eV)",
    "element_ionization_energy3": "23.4 (eV)",
    "element_ionization_energy4": "41.4 (eV)",
    "element_atomic_radius_e": "185 (pm)",
    "element_atomic_radius": "238 (pm)",
    "element_covalent_radius": "--- (pm)",
    "element_van_der_waals": "---",

    "element_phase": "Solid",
    "element_fusion_heat": "8.62 (kJ/mol)",
    "element_specific_heat_capacity": "0.197 J/(g·K)",
    "element_vaporization_heat": "165 (kJ/mol)",

    "oxidation_state_neg": "0",
    "oxidation_state_pos": "2 3",

    "speed_of_sound_gas": "---",
    "speed_of_sound_liquid": "---",
    "speed_of_sound_solid": "2130 (m/s) [20°C]",

    "mohs_hardness": "---",
    "vickers_hardness": "412-441 (MPa)",
    "brinell_hardness": "441-600 (MPa)",

    "young_modulus": "49.7 (GPa) [α-form]",
    "poisson_ratio": "0.274 [α-form]",
    "bulk_modulus": "37.8 (GPa) [α-form]",
    "shear_modulus": "19.5 (GPa) [α-form]",

    "sea_water": "0.00045",
    "crustal_rocks": "7.7",
    "sun": "0.3",
    "solar_system": "0.26",

      "iso_1": "Sm-128",
      "iso_mass_1": "127.95808",
      "decay_type_1": "B+",
      "iso_half_1": "100 ms",
      "iso_Z_1": "62",
      "iso_N_1": "66",
      "iso_A_1": "128",

      "iso_2": "Sm-129",
      "iso_mass_2": "128.95464",
      "decay_type_2": "B+",
      "iso_half_2": "550 ms",
      "iso_Z_2": "62",
      "iso_N_2": "67",
      "iso_A_2": "129",

      "iso_3": "Sm-130",
      "iso_mass_3": "129.94892",
      "decay_type_3": "B+",
      "iso_half_3": "1 s",
      "iso_Z_3": "62",
      "iso_N_3": "68",
      "iso_A_3": "130",

      "iso_4": "Sm-131",
      "iso_mass_4": "130.94611",
      "decay_type_4": "B+",
      "iso_half_4": "1.5 s",
      "iso_Z_4": "62",
      "iso_N_4": "69",
      "iso_A_4": "131",

      "iso_5": "Sm-132",
      "iso_mass_5": "131.94069",
      "decay_type_5": "B+",
      "iso_half_5": "2.8 s",
      "iso_Z_5": "62",
      "iso_N_5": "70",
      "iso_A_5": "132",

      "iso_6": "Sm-133",
      "iso_mass_6": "132.93867",
      "decay_type_6": "B+",
      "iso_half_6": "3.5 s",
      "iso_Z_6": "62",
      "iso_N_6": "71",
      "iso_A_6": "133",

      "iso_7": "Sm-134",
      "iso_mass_7": "133.93411",
      "decay_type_7": "B+",
      "iso_half_7": "9.5 s",
      "iso_Z_7": "62",
      "iso_N_7": "72",
      "iso_A_7": "134",

      "iso_8": "Sm-135",
      "iso_mass_8": "134.93252",
      "decay_type_8": "B+",
      "iso_half_8": "10.3 s",
      "iso_Z_8": "62",
      "iso_N_8": "73",
      "iso_A_8": "135",

      "iso_9": "Sm-136",
      "iso_mass_9": "135.928276",
      "decay_type_9": "B+",
      "iso_half_9": "27.0 s",
      "iso_Z_9": "62",
      "iso_N_9": "74",
      "iso_A_9": "136",

      "iso_10": "Sm-137",
      "iso_mass_10": "136.92697",
      "decay_type_10": "B+",
      "iso_half_10": "20.5 s",
      "iso_Z_10": "62",
      "iso_N_10": "75",
      "iso_A_10": "137",

      "iso_11": "Sm-138",
      "iso_mass_11": "137.923244",
      "decay_type_11": "B+",
      "iso_half_11": "1.5 min",
      "iso_Z_11": "62",
      "iso_N_11": "76",
      "iso_A_11": "138",

      "iso_12": "Sm-139",
      "iso_mass_12": "138.922297",
      "decay_type_12": "B+",
      "iso_half_12": "2.4 min",
      "iso_Z_12": "62",
      "iso_N_12": "77",
      "iso_A_12": "139",

      "iso_13": "Sm-140",
      "iso_mass_13": "139.918995",
      "decay_type_13": "B+",
      "iso_half_13": "12.8 min",
      "iso_Z_13": "62",
      "iso_N_13": "78",
      "iso_A_13": "140",

      "iso_14": "Sm-141",
      "iso_mass_14": "140.918476",
      "decay_type_14": "B+",
      "iso_half_14": "10.0 min",
      "iso_Z_14": "62",
      "iso_N_14": "79",
      "iso_A_14": "141",

      "iso_15": "Sm-142",
      "iso_mass_15": "141.915198",
      "decay_type_15": "B+",
      "iso_half_15": "1.02 min",
      "iso_Z_15": "62",
      "iso_N_15": "80",
      "iso_A_15": "142",

      "iso_16": "Sm-143",
      "iso_mass_16": "142.914628",
      "decay_type_16": "B+",
      "iso_half_16": "8.75 min",
      "iso_Z_16": "62",
      "iso_N_16": "81",
      "iso_A_16": "143",

      "iso_17": "Sm-144",
      "iso_mass_17": "143.911999",
      "decay_type_17": "stable",
      "iso_half_17": "stable",
      "iso_Z_17": "62",
      "iso_N_17": "82",
      "iso_A_17": "144",

      "iso_18": "Sm-145",
      "iso_mass_18": "144.913410",
      "decay_type_18": "EC",
      "iso_half_18": "340 d",
      "iso_Z_18": "62",
      "iso_N_18": "83",
      "iso_A_18": "145",

      "iso_19": "Sm-146",
      "iso_mass_19": "145.913041",
      "decay_type_19": "alpha",
      "iso_half_19": "1.03×10^8 y",
      "iso_Z_19": "62",
      "iso_N_19": "84",
      "iso_A_19": "146",

      "iso_20": "Sm-147",
      "iso_mass_20": "146.9148979",
      "decay_type_20": "alpha",
      "iso_half_20": "1.06×10^11 y",
      "iso_Z_20": "62",
      "iso_N_20": "85",
      "iso_A_20": "147",

      "iso_21": "Sm-148",
      "iso_mass_21": "147.9148227",
      "decay_type_21": "alpha",
      "iso_half_21": "7×10^15 y",
      "iso_Z_21": "62",
      "iso_N_21": "86",
      "iso_A_21": "148",

      "iso_22": "Sm-149",
      "iso_mass_22": "148.9171921",
      "decay_type_22": "stable",
      "iso_half_22": "stable",
      "iso_Z_22": "62",
      "iso_N_22": "87",
      "iso_A_22": "149",

      "iso_23": "Sm-150",
      "iso_mass_23": "149.9172829",
      "decay_type_23": "stable",
      "iso_half_23": "stable",
      "iso_Z_23": "62",
      "iso_N_23": "88",
      "iso_A_23": "150",

      "iso_24": "Sm-151",
      "iso_mass_24": "150.9199398",
      "decay_type_24": "B-",
      "iso_half_24": "90 y",
      "iso_Z_24": "62",
      "iso_N_24": "89",
      "iso_A_24": "151",

      "iso_25": "Sm-152",
      "iso_mass_25": "151.9197397",
      "decay_type_25": "stable",
      "iso_half_25": "stable",
      "iso_Z_25": "62",
      "iso_N_25": "90",
      "iso_A_25": "152",

      "iso_26": "Sm-153",
      "iso_mass_26": "152.9221047",
      "decay_type_26": "B-",
      "iso_half_26": "46.3 h",
      "iso_Z_26": "62",
      "iso_N_26": "91",
      "iso_A_26": "153",

      "iso_27": "Sm-154",
      "iso_mass_27": "153.9222169",
      "decay_type_27": "stable",
      "iso_half_27": "stable",
      "iso_Z_27": "62",
      "iso_N_27": "92",
      "iso_A_27": "154",

      "iso_28": "Sm-155",
      "iso_mass_28": "154.9246477",
      "decay_type_28": "B-",
      "iso_half_28": "22.3 min",
      "iso_Z_28": "62",
      "iso_N_28": "93",
      "iso_A_28": "155",

      "iso_29": "Sm-156",
      "iso_mass_29": "155.925536",
      "decay_type_29": "B-",
      "iso_half_29": "9.4 h",
      "iso_Z_29": "62",
      "iso_N_29": "94",
      "iso_A_29": "156",

      "iso_30": "Sm-157",
      "iso_mass_30": "156.9284187",
      "decay_type_30": "B-",
      "iso_half_30": "8.0 min",
      "iso_Z_30": "62",
      "iso_N_30": "95",
      "iso_A_30": "157",

      "iso_31": "Sm-158",
      "iso_mass_31": "157.929951",
      "decay_type_31": "B-",
      "iso_half_31": "5.3 min",
      "iso_Z_31": "62",
      "iso_N_31": "96",
      "iso_A_31": "158",

      "iso_32": "Sm-159",
      "iso_mass_32": "158.9332172",
      "decay_type_32": "B-",
      "iso_half_32": "15.1 s",
      "iso_Z_32": "62",
      "iso_N_32": "97",
      "iso_A_32": "159",

      "iso_33": "Sm-160",
      "iso_mass_33": "159.935335",
      "decay_type_33": "B-",
      "iso_half_33": "9.6 s",
      "iso_Z_33": "62",
      "iso_N_33": "98",
      "iso_A_33": "160",

      "iso_34": "Sm-161",
      "iso_mass_34": "160.939160",
      "decay_type_34": "B-",
      "iso_half_34": "3.6 s",
      "iso_Z_34": "62",
      "iso_N_34": "99",
      "iso_A_34": "161",

      "iso_35": "Sm-162",
      "iso_mass_35": "161.94146",
      "decay_type_35": "B-",
      "iso_half_35": "2.6 s",
      "iso_Z_35": "62",
      "iso_N_35": "100",
      "iso_A_35": "162",

      "iso_36": "Sm-163",
      "iso_mass_36": "162.94555",
      "decay_type_36": "B-",
      "iso_half_36": "1.5 s",
      "iso_Z_36": "62",
      "iso_N_36": "101",
      "iso_A_36": "163",

      "iso_37": "Sm-164",
      "iso_mass_37": "163.94836",
      "decay_type_37": "B-",
      "iso_half_37": "0.9 s",
      "iso_Z_37": "62",
      "iso_N_37": "102",
      "iso_A_37": "164",

      "iso_38": "Sm-165",
      "iso_mass_38": "164.95297",
      "decay_type_38": "B-",
      "iso_half_38": "0.6 s",
      "iso_Z_38": "62",
      "iso_N_38": "103",
      "iso_A_38": "165",

      "iso_39": "Sm-166",
      "iso_mass_39": "165.95633",
      "decay_type_39": "B-",
      "iso_half_39": "0.4 s",
      "iso_Z_39": "62",
      "iso_N_39": "104",
      "iso_A_39": "166"
  }
]