[
  {
"element_code": "AAoTwjnu98nFJ7P9cZZ",
    "wikilink": "https://en.wikipedia.org/wiki/Seaborgium",
    "link": "empty",
    "description": "Seaborgium is a synthetic chemical element with the symbol Sg and atomic number 106. It is named after the American nuclear chemist Glenn T. Seaborg. As a synthetic element, it can be created in a laboratory but is not found in nature. It is also radioactive; the most stable known isotope, Sg-269, has a half-life of approximately 14 minutes",

    "element": "Seaborgium",
    "short": "Sg",
    "element_year": "1974",
    "element_discovered_name": "Lawrence Berkeley National Laboratory",
    "element_group": "Transition Metals",
    "element_appearance": "---",
    "element_electrons": "106",
    "element_protons": "106",
    "element_neutron_common": "163",

    "radioactive": "Yes",
    "neutron_cross_sectional": "--- (b)",

    "electrical_type": "---",
    "resistivity": "---",
    "resistivity_mult": "---",
    "magnetic_type": "---",
    "superconducting_point": "---",

    "element_atomic_number": "106",
    "element_atomicmass": "269 (u)",
    "element_density": "35 (g/cm^3)",
    "element_electronegativty": "---",
    "element_block": "d - block",
    "element_shells_electrons": "K2 L8 M18 N32 O32 P12 Q2 R0",
    "element_model": "https://upload.wikimedia.org/wikipedia/commons/thumb/6/6a/Electron_shell_106_Seaborgium_-_no_label.svg/800px-Electron_shell_106_Seaborgium_-_no_label.svg.png",

    "element_boiling_kelvin": "--- (K)",
    "element_boiling_celsius": "--- (°C)",
    "element_boiling_fahrenheit": "--- (°F)",
    "element_melting_kelvin": "--- (K)",
    "element_melting_celsius": "--- (°C)",
    "element_melting_fahrenheit": "--- (°F)",

    "element_electron_config": "5f^14, 6d^4. 7s^2",
    "element_ion_charge": "---",
    "element_ionization_energy1": "---",
    "element_atomic_radius_e": "--- (pm)",
    "element_atomic_radius": "--- (pm)",
    "element_covalent_radius": "---",
    "element_van_der_waals": "--- (pm)",

    "element_phase": "Solid",
    "element_fusion_heat": "--- (kJ/mol)",
    "element_specific_heat_capacity": "--- J/(g·K)",
    "element_vaporization_heat": "--- (kJ/mol)",

    "oxidation_state_neg": "0",
    "oxidation_state_pos": "6",

    "cas_number": "54038-81-0",
    "eg_number": null,

      "iso_1": "258Sg",
      "iso_mass_1": "258.11298",
      "decay_type_1": "SF",
      "iso_half_1": "2.7 ms",
      "iso_Z_1": "106",
      "iso_N_1": "152",
      "iso_A_1": "258",

      "iso_2": "259Sg",
      "iso_mass_2": "259.11440",
      "decay_type_2": "α",
      "iso_half_2": "402 ms",
      "iso_Z_2": "106",
      "iso_N_2": "153",
      "iso_A_2": "259",

      "iso_3": "260Sg",
      "iso_mass_3": "260.114384",
      "decay_type_3": "SF",
      "iso_half_3": "4.95 ms",
      "iso_Z_3": "106",
      "iso_N_3": "154",
      "iso_A_3": "260",

      "iso_4": "261Sg",
      "iso_mass_4": "261.115949",
      "decay_type_4": "α",
      "iso_half_4": "183 ms",
      "iso_Z_4": "106",
      "iso_N_4": "155",
      "iso_A_4": "261",

      "iso_5": "262Sg",
      "iso_mass_5": "262.11634",
      "decay_type_5": "SF",
      "iso_half_5": "10.3 ms",
      "iso_Z_5": "106",
      "iso_N_5": "156",
      "iso_A_5": "262",

      "iso_6": "263Sg",
      "iso_mass_6": "263.11829",
      "decay_type_6": "α",
      "iso_half_6": "940 ms",
      "iso_Z_6": "106",
      "iso_N_6": "157",
      "iso_A_6": "263",

      "iso_7": "264Sg",
      "iso_mass_7": "264.11893",
      "decay_type_7": "SF",
      "iso_half_7": "37 ms",
      "iso_Z_7": "106",
      "iso_N_7": "158",
      "iso_A_7": "264",

      "iso_8": "265Sg",
      "iso_mass_8": "265.12109",
      "decay_type_8": "α",
      "iso_half_8": "8.5 s",
      "iso_Z_8": "106",
      "iso_N_8": "159",
      "iso_A_8": "265",

      "iso_9": "266Sg",
      "iso_mass_9": "266.12198",
      "decay_type_9": "SF",
      "iso_half_9": "390 ms",
      "iso_Z_9": "106",
      "iso_N_9": "160",
      "iso_A_9": "266",

      "iso_10": "267Sg",
      "iso_mass_10": "267.12436",
      "decay_type_10": "α",
      "iso_half_10": "9.8 min",
      "iso_Z_10": "106",
      "iso_N_10": "161",
      "iso_A_10": "267",

      "iso_11": "268Sg",
      "iso_mass_11": "268.12539",
      "decay_type_11": "SF",
      "iso_half_11": "13 s",
      "iso_Z_11": "106",
      "iso_N_11": "162",
      "iso_A_11": "268",

      "iso_12": "269Sg",
      "iso_mass_12": "269.12863",
      "decay_type_12": "α",
      "iso_half_12": "5 min",
      "iso_Z_12": "106",
      "iso_N_12": "163",
      "iso_A_12": "269",

      "iso_13": "271Sg",
      "iso_mass_13": "271.13393",
      "decay_type_13": "α",
      "iso_half_13": "31 s",
      "iso_Z_13": "106",
      "iso_N_13": "165",
      "iso_A_13": "271"
  }
]