[
  {
    "element_code": "AAoTwjnu98nFJ7P9cZZ",
    "wikilink": "https://en.wikipedia.org/wiki/Seaborgium",
    "link": "empty",
    "description": "Seaborgium is a synthetic chemical element with the symbol Sg and atomic number 106. It is named after the American nuclear chemist Glenn T. Seaborg. As a synthetic element, it can be created in a laboratory but is not found in nature. It is also radioactive; the most stable known isotope, Sg-269, has a half-life of approximately 14 minutes",
    "element": "Seaborgium",
    "short": "Sg",
    "element_year": "1974",
    "element_discovered_name": "Lawrence Berkeley National Laboratory",
    "element_group": "Transition Metals",
    "element_appearance": "---",
    "element_electrons": "106",
    "element_protons": "106",
    "element_neutron_common": "163",
    "radioactive": "Yes",
    "neutron_cross_sectional": "--- (b)",
    "electrical_type": "---",
    "resistivity": "---",
    "resistivity_mult": "---",
    "magnetic_type": "---",
    "superconducting_point": "---",
    "element_atomic_number": "106",
    "element_atomicmass": "269 (u)",
    "element_density": "35 (g/cm^3)",
    "element_electronegativty": "---",
    "element_block": "d - block",
    "element_shells_electrons": "K2 L8 M18 N32 O32 P12 Q2 R0",
    "element_model": "https://upload.wikimedia.org/wikipedia/commons/thumb/6/6a/Electron_shell_106_Seaborgium_-_no_label.svg/800px-Electron_shell_106_Seaborgium_-_no_label.svg.png",
    "element_boiling_kelvin": "--- (K)",
    "element_boiling_celsius": "--- (°C)",
    "element_boiling_fahrenheit": "--- (°F)",
    "element_melting_kelvin": "--- (K)",
    "element_melting_celsius": "--- (°C)",
    "element_melting_fahrenheit": "--- (°F)",
    "element_electron_config": "5f^14, 6d^4. 7s^2",
    "element_ion_charge": "---",
    "element_ionization_energy1": "---",
    "element_atomic_radius_e": "--- (pm)",
    "element_atomic_radius": "--- (pm)",
    "element_covalent_radius": "---",
    "element_van_der_waals": "--- (pm)",
    "element_phase": "Solid",
    "element_fusion_heat": "--- (kJ/mol)",
    "element_specific_heat_capacity": "--- J/(g·K)",
    "element_vaporization_heat": "--- (kJ/mol)",
    "oxidation_state_neg": "0",
    "oxidation_state_pos": "6",
    "iso_1": "Sg-269",
    "iso_mass_1": "269.12863",
    "iso_half_1": "14 (min)",
    "iso_Z_1": "106",
    "iso_N_1": "163",
    "iso_A_1": "269",
    "crystal_structure": null,
    "lattice_constants": null,
    "debye_temperature": {
      "low_temperature_limit": null,
      "room_temperature": null
    }
  }
]