[
  {
"element_code": "AA8nFu7fYxC4w62evZZ",
    "wikilink": "https://en.wikipedia.org/wiki/Silicon",
    "link": "https://upload.wikimedia.org/wikipedia/commons/e/e9/SiliconCroda.jpg",
    "description": "Silicon is a chemical element with the symbol Si and atomic number 14. It is a hard, brittle crystalline solid with a blue-grey metallic lustre, and is a tetravalent metalloid and semiconductor. It is a member of group 14 in the periodic table: carbon is above it; and germanium, tin, and lead are below it. It is relatively unreactive. Because of its high chemical affinity for oxygen, it was not until 1823 that Jöns Jakob Berzelius was first able to prepare it and characterize it in pure form. Its oxides form a family of anions known as silicates. Its melting and boiling points of 1414 °C and 3265 °C respectively are the second-highest among all the metalloids and nonmetals, being only surpassed by boron. Silicon is the eighth most common element in the universe by mass, but very rarely occurs as the pure element in the Earth's crust. It is most widely distributed in space in cosmic dusts, planetoids, and planets as various forms of silicon dioxide (silica) or silicates. More than 90% of the Earth's crust is composed of silicate minerals, making silicon the second most abundant element in the Earth's crust (about 28% by mass), after oxygen.",

    "element": "Silicon",
    "short": "Si",
    "element_year": "1824",
    "element_discovered_name": "Jöns Jacob Berzelius",
    "element_group": "Metalloids",
    "element_appearance": "Crystalline, reflective with bluish-tinged faces",
    "element_electrons": "14",
    "element_protons": "14",
    "element_neutron_common": "14",

    "radioactive": "No",
    "neutron_cross_sectional": "0.171 (b)",

    "electrical_type": "Semiconductor",
    "resistivity": "1",
    "resistivity_mult": "0.001",
    "magnetic_type": "Diamagnetic",
    "superconducting_point": "---",

    "element_atomic_number": "14",
    "element_atomicmass": "28.085 (u)",
    "element_density": "2.3290 (g/cm^3)",
    "element_electronegativty": "1.90",
    "element_block": "p - block",
    "element_shells_electrons": "K2 L8 M4 N0 O0 P0 Q0 R0",
    "element_model": "https://upload.wikimedia.org/wikipedia/commons/thumb/1/1f/Electron_shell_014_Silicon_-_no_label.svg/1280px-Electron_shell_014_Silicon_-_no_label.svg.png",

    "element_boiling_kelvin": "3538 (K)",
    "element_boiling_celsius": "3265 (°C)",
    "element_boiling_fahrenheit": "5909 (°F)",
    "element_melting_kelvin": "1687 (K)",
    "element_melting_celsius": "1414 (°C)",
    "element_melting_fahrenheit": "2577 (°F)",

    "element_electron_config": "3s^2 3p^2",
    "element_ion_charge": "---",
    "element_ionization_energy1": "8.15169 (eV)",
    "element_ionization_energy2": "16.34585 (eV)",
    "element_ionization_energy3": "33.49302 (eV)",
    "element_ionization_energy4": "45.14181 (eV)",
    "element_ionization_energy5": "166.767 (eV)",
    "element_ionization_energy6": "205.27 (eV)",
    "element_ionization_energy7": "246.5 (eV)",
    "element_ionization_energy8": "303.54 (eV)",
    "element_ionization_energy9": "351.12 (eV)",
    "element_ionization_energy10": "401.37 (eV)",
    "element_ionization_energy11": "476.36 (eV)",
    "element_ionization_energy12": "523.42 (eV)",
    "element_ionization_energy13": "2437.63 (eV)",
    "element_ionization_energy14": "2673.182 (eV)",
    "element_atomic_radius_e": "110 (pm)",
    "element_atomic_radius": "111 (pm)",
    "element_covalent_radius": "111 (pm)",
    "element_van_der_waals": "210 (pm)",

    "element_phase": "Solid",
    "element_fusion_heat": "50.21 (kJ/mol)",
    "element_specific_heat_capacity": "0.705 J/(g·K)",
    "element_vaporization_heat": "359 (kJ/mol)",

    "oxidation_state_neg": "4 3 2 1 0",
    "oxidation_state_pos": "1 2 3 4",

    "speed_of_sound_gas": "---",
    "speed_of_sound_liquid": "---",
    "speed_of_sound_solid": "---",

    "young_modulus": "130-188 (GPa)",
    "poisson_ratio": "---",
    "bulk_modulus": "100 (GPa)",
    "shear_modulus": "--- (GPa)",

    "mohs_hardness": "6.5",
    "vickers_hardness": "---",
    "brinell_hardness": "---",

      "earth_crust": "295,000",
      "earth_soils": "330,000",
      "urban_soils": "289,000",

    "iso_1": "Si-22",
    "iso_mass_1": "22.03579",
    "iso_half_1": "29 (ms)",
    "decay_type_1": "B+",
    "iso_Z_1": "14",
    "iso_N_1": "8",
    "iso_A_1": "22",

    "iso_2": "Si-23",
    "iso_mass_2": "23.02544",
    "iso_half_2": "42.3 (ms)",
    "decay_type_2": "B+",
    "iso_Z_2": "14",
    "iso_N_2": "9",
    "iso_A_2": "23",

    "iso_3": "Si-24",
    "iso_mass_3": "24.011535",
    "iso_half_3": "140 (ms)",
    "decay_type_3": "B+",
    "iso_Z_3": "14",
    "iso_N_3": "10",
    "iso_A_3": "24",

    "iso_4": "Si-25",
    "iso_mass_4": "25.004109",
    "iso_half_4": "220 (ms)",
    "decay_type_4": "B+",
    "iso_Z_4": "14",
    "iso_N_4": "11",
    "iso_A_4": "25",

    "iso_5": "Si-26",
    "iso_mass_5": "25.9923338",
    "iso_half_5": "2.2453 (s)",
    "decay_type_5": "B+",
    "iso_Z_5": "14",
    "iso_N_5": "12",
    "iso_A_5": "26",

    "iso_6": "Si-27",
    "iso_mass_6": "26.98670469",
    "iso_half_6": "4.15 (s)",
    "decay_type_6": "B+",
    "iso_Z_6": "14",
    "iso_N_6": "13",
    "iso_A_6": "27",

    "iso_7": "Si-28",
    "iso_mass_7": "27.9769265350",
    "iso_half_7": "Stable",
    "decay_type_7": "stable",
    "iso_Z_7": "14",
    "iso_N_7": "14",
    "iso_A_7": "28",

    "iso_8": "Si-29",
    "iso_mass_8": "28.9764946653",
    "iso_half_8": "Stable",
    "iso_Z_8": "14",
    "iso_N_8": "15",
    "iso_A_8": "29",

    "iso_9": "Si-30",
    "iso_mass_9": "29.973770137",
    "iso_half_9": "Stable",
    "decay_type_9": "stable",
    "iso_Z_9": "14",
    "iso_N_9": "16",
    "iso_A_9": "30",

    "iso_10": "Si-31",
    "iso_mass_10": "30.97536319",
    "iso_half_10": "157.36 (min)",
    "decay_type_10": "stable",
    "iso_Z_10": "14",
    "iso_N_10": "17",
    "iso_A_10": "31",

    "iso_11": "Si-32",
    "iso_mass_11": "31.9741515",
    "iso_half_11": "153 (Years)",
    "decay_type_11": "B-",
    "iso_Z_11": "14",
    "iso_N_11": "18",
    "iso_A_11": "32",

    "iso_12": "Si-33",
    "iso_mass_12": "32.9779770",
    "iso_half_12": "6.18 (s)",
    "decay_type_12": "B-",
    "iso_Z_12": "14",
    "iso_N_12": "19",
    "iso_A_12": "33",

    "iso_13": "Si-34",
    "iso_mass_13": "33.978575",
    "iso_half_13": "2.77 (s)",
    "decay_type_13": "B-",
    "iso_Z_13": "14",
    "iso_N_13": "20",
    "iso_A_13": "34",

    "iso_14": "Si-35",
    "iso_mass_14": "34.98455",
    "iso_half_14": "780 (ms)",
    "decay_type_14": "B-",
    "iso_Z_14": "14",
    "iso_N_14": "21",
    "iso_A_14": "35",

    "iso_15": "Si-36",
    "iso_mass_15": "35.98665",
    "iso_half_15": "450 (ms)",
    "decay_type_15": "B-",
    "iso_Z_15": "14",
    "iso_N_15": "22",
    "iso_A_15": "36",

    "iso_16": "Si-37",
    "iso_mass_16": "36.99295",
    "iso_half_16": "90 (ms)",
    "decay_type_16": "B-",
    "iso_Z_16": "14",
    "iso_N_16": "23",
    "iso_A_16": "37",

    "iso_17": "Si-38",
    "iso_mass_17": "37.99552",
    "iso_half_17": "90 (ms)",
    "decay_type_17": "B-",
    "iso_Z_17": "14",
    "iso_N_17": "24",
    "iso_A_17": "38",

    "iso_18": "Si-39",
    "iso_mass_18": "39.00249",
    "iso_half_18": "47.5 (ms)",
    "decay_type_18": "B-",
    "iso_Z_18": "14",
    "iso_N_18": "25",
    "iso_A_18": "39",

    "iso_19": "Si-40",
    "iso_mass_19": "40.00583",
    "iso_half_19": "33.0 (ms)",
    "decay_type_19": "B-",
    "iso_Z_19": "14",
    "iso_N_19": "26",
    "iso_A_19": "40",

    "iso_20": "Si-41",
    "iso_mass_20": "41.01301",
    "iso_half_20": "20.0 (ms)",
    "decay_type_20": "B-",
    "iso_Z_20": "14",
    "iso_N_20": "27",
    "iso_A_20": "41",

    "iso_21": "Si-42",
    "iso_mass_21": "42.01768",
    "iso_half_21": "12.5 (ms)",
    "decay_type_21": "B-",
    "iso_Z_21": "14",
    "iso_N_21": "28",
    "iso_A_21": "42",

    "iso_22": "Si-43",
    "iso_mass_22": "43.02480",
    "iso_half_22": "15 (ms)",
    "decay_type_22": "B-",
    "iso_Z_22": "14",
    "iso_N_22": "29",
    "iso_A_22": "43",

    "iso_23": "Si-44",
    "iso_mass_23": "44.03061",
    "iso_half_23": "10 (ms)",
    "decay_type_23": "B-",
    "iso_Z_23": "14",
    "iso_N_23": "30",
    "iso_A_23": "44"
  }
]