[
  {
"element_code": "AAmGUz3QxyBqkYjDYZZ",
    "wikilink": "https://en.wikipedia.org/wiki/Sodium",
    "link": "https://upload.wikimedia.org/wikipedia/commons/thumb/2/27/Na_%28Sodium%29.jpg/1920px-Na_%28Sodium%29.jpg",
    "description": "Sodium is a chemical element with the symbol Na (from Latin \"natrium\") and atomic number 11. It is a soft, silvery-white, highly reactive metal. Sodium is an alkali metal, being in group 1 of the periodic table. Its only stable isotope is Na-23. The free metal does not occur in nature, and must be prepared from compounds. Sodium is the sixth most abundant element in the Earth's crust and exists in numerous minerals such as feldspars, sodalite, and rock salt (NaCl). Many salts of sodium are highly water-soluble: sodium ions have been leached by the action of water from the Earth's minerals over eons, and thus sodium and chlorine are the most common dissolved elements by weight in the oceans.",

    "element": "Sodium",
    "short": "Na",
    "element_year": "1807",
    "element_discovered_name": "Humphry Davy",
    "element_group": "Alkali Metals",
    "element_appearance": "Silvery White Metall",
    "element_electrons": "11",
    "element_protons": "11",
    "element_neutron_common": "12",

    "radioactive": "No",
    "neutron_cross_sectional": "0.53 (b)",

    "electrical_type": "Conductor",
    "resistivity": "4.7",
    "resistivity_mult": "0.00000001",
    "magnetic_type": "Paramagnetic",
    "superconducting_point": "0.022",

    "element_atomic_number": "11",
    "element_atomicmass": "22.9898 (u)",
    "element_density": "0.97 (g/cm^3)",
    "element_electronegativty": "0.93",
    "element_block": "s - block",
    "element_shells_electrons": "K2 L8 M1 N0 O0 P0 Q0 R0",
    "element_model": "https://upload.wikimedia.org/wikipedia/commons/thumb/8/87/Electron_shell_011_Sodium_-_no_label.svg/1280px-Electron_shell_011_Sodium_-_no_label.svg.png",

    "element_boiling_kelvin": "1156.090 (K)",
    "element_boiling_celsius": "882.940 (°C)",
    "element_boiling_fahrenheit": "1621.292 (°F)",
    "element_melting_kelvin": "370.944 (K)",
    "element_melting_celsius": "97.794 (°C)",
    "element_melting_fahrenheit": "208.029 (°F)",

    "element_electron_config": "3s^1",
    "element_ion_charge": "Na^+",
    "element_ionization_energy1": "5.13908 (eV)",
    "element_ionization_energy2": "47.2864 (eV)",
    "element_ionization_energy3": "71.6200 (eV)",
    "element_ionization_energy4": "98.91 (eV)",
    "element_ionization_energy5": "138.40 (eV)",
    "element_ionization_energy6": "172.18 (eV)",
    "element_ionization_energy7": "208.50 (eV)",
    "element_ionization_energy8": "264.25 (eV)",
    "element_ionization_energy9": "299.864 (eV)",
    "element_ionization_energy10": "1465.121 (eV)",
    "element_ionization_energy11": "1648.702 (eV)",
    "element_atomic_radius_e": "180 (pm)",
    "element_atomic_radius": "190 (pm)",
    "element_covalent_radius": "154 (pm)",
    "element_van_der_waals": "227 (pm)",

    "element_phase": "Solid",
    "element_fusion_heat": "2.60 (kJ/mol)",
    "element_specific_heat_capacity": "1.228 J/(g·K)",
    "element_vaporization_heat": "97.42 (kJ/mol)",

    "oxidation_state_neg": "1",
    "oxidation_state_pos": "1",

    "speed_of_sound_gas": "---",
    "speed_of_sound_liquid": "---",
    "speed_of_sound_solid": "3200 (m/s) [20°C]",

    "young_modulus": "10 (GPa)",
    "poisson_ratio": "---",
    "bulk_modulus": "6.3 (GPa)",
    "shear_modulus": "3.3 (GPa)",

    "mohs_hardness": "0.5",
    "vickers_hardness": "---",
    "brinell_hardness": "0.69 (MPa)",

      "earth_crust": "25,000",
      "earth_soils": "6300",
      "urban_soils": "5800",

    "iso_1": "Na-18",
    "iso_mass_1": "18.02688",
    "iso_half_1": "1.3×10^−21 (s)",
    "decay_type_1": "p",
    "iso_Z_1": "11",
    "iso_N_1": "7",
    "iso_A_1": "18",

    "iso_2": "Na-19",
    "iso_mass_2": "19.013880",
    "iso_half_2": "10×10^−18 (s)",
    "decay_type_2": "p",
    "iso_Z_2": "11",
    "iso_N_2": "8",
    "iso_A_2": "19",

    "iso_3": "Na-20",
    "iso_mass_3": "20.0073544",
    "iso_half_3": "447.9 (ms)",
    "decay_type_3": "B+",
    "iso_Z_3": "11",
    "iso_N_3": "9",
    "iso_A_3": "20",

    "iso_4": "Na-21",
    "iso_mass_4": "20.99765470",
    "iso_half_4": "22.422 (s)",
    "decay_type_4": "B+",
    "iso_Z_4": "11",
    "iso_N_4": "10",
    "iso_A_4": "21",

    "iso_5": "Na-22",
    "iso_mass_5": "21.99443742",
    "iso_half_5": "2.6018 (Years)",
    "decay_type_5": "B+",
    "iso_Z_5": "11",
    "iso_N_5": "11",
    "iso_A_5": "22",

    "iso_6": "Na-23",
    "iso_mass_6": "22.9897692820",
    "iso_half_6": "Stable",
    "decay_type_6": "stable",
    "iso_Z_6": "11",
    "iso_N_6": "12",
    "iso_A_6": "23",

    "iso_7": "Na-24",
    "iso_mass_7": "23.990963011",
    "iso_half_7": "14.957 (h)",
    "decay_type_7": "B-",
    "iso_Z_7": "11",
    "iso_N_7": "13",
    "iso_A_7": "24",

    "iso_8": "Na-25",
    "iso_mass_8": "24.9899540",
    "iso_half_8": "59.1 (s)",
    "decay_type_8": "B-",
    "iso_Z_8": "11",
    "iso_N_8": "14",
    "iso_A_8": "25",

    "iso_9": "Na-26",
    "iso_mass_9": "25.992635",
    "iso_half_9": "1.07128 (s)",
    "decay_type_9": "B-",
    "iso_Z_9": "11",
    "iso_N_9": "15",
    "iso_A_9": "26",

    "iso_10": "Na-27",
    "iso_mass_10": "26.994076",
    "iso_half_10": "301 (ms)",
    "decay_type_10": "B-",
    "iso_Z_10": "11",
    "iso_N_10": "16",
    "iso_A_10": "27",

    "iso_11": "Na-28",
    "iso_mass_11": "27.998939",
    "iso_half_11": "30.5 (ms)",
    "decay_type_11": "B-",
    "iso_Z_11": "11",
    "iso_N_11": "17",
    "iso_A_11": "28",

    "iso_12": "Na-29",
    "iso_mass_12": "29.002877",
    "iso_half_12": "44.1 (ms)",
    "decay_type_12": "B-",
    "iso_Z_12": "11",
    "iso_N_12": "18",
    "iso_A_12": "29",

    "iso_13": "Na-30",
    "iso_mass_13": "30.009098",
    "iso_half_13": "48.4 (ms)",
    "decay_type_13": "B-",
    "iso_Z_13": "11",
    "iso_N_13": "19",
    "iso_A_13": "30",

    "iso_14": "Na-31",
    "iso_mass_14": "31.013147",
    "iso_half_14": "17.35 (ms)",
    "decay_type_14": "B-",
    "iso_Z_14": "11",
    "iso_N_14": "20",
    "iso_A_14": "31",

    "iso_15": "Na-32",
    "iso_mass_15": "32.02001",
    "iso_half_15": "12.9 (ms)",
    "decay_type_15": "B-",
    "iso_Z_15": "11",
    "iso_N_15": "21",
    "iso_A_15": "32",

    "iso_16": "Na-33",
    "iso_mass_16": "33.02553",
    "iso_half_16": "8.2 (ms)",
    "decay_type_16": "B-",
    "iso_Z_16": "11",
    "iso_N_16": "22",
    "iso_A_16": "33",

    "iso_17": "Na-34",
    "iso_mass_17": "34.03401",
    "iso_half_17": "5.5 (ms)",
    "decay_type_17": "B-",
    "iso_Z_17": "11",
    "iso_N_17": "23",
    "iso_A_17": "34",

    "iso_18": "Na-35",
    "iso_mass_18": "35.04104",
    "iso_half_18": "1.5 (ms)",
    "decay_type_18": "B-",
    "iso_Z_18": "11",
    "iso_N_18": "24",
    "iso_A_18": "35",

    "iso_19": "Na-36",
    "iso_mass_19": "---",
    "iso_half_19": "---",
    "decay_type_19": "n",
    "iso_Z_19": "11",
    "iso_N_19": "25",
    "iso_A_19": "36",

    "iso_20": "Na-37",
    "iso_mass_20": "37.05747",
    "iso_half_20": "1 (ms)",
    "decay_type_20": "B-",
    "iso_Z_20": "11",
    "iso_N_20": "26",
    "iso_A_20": "37"
  }
]