[
  {
"element_code": "AAeJykfm5BiSRoaukZZ",
    "wikilink": "https://en.wikipedia.org/wiki/Tantalum",
    "link": "https://upload.wikimedia.org/wikipedia/commons/thumb/8/83/Tantalum_single_crystal_and_1cm3_cube.jpg/1024px-Tantalum_single_crystal_and_1cm3_cube.jpg",
    "description": "Tantalum is a chemical element with the symbol Ta and atomic number 73. Previously known as tantalium, it is named after Tantalus, a villain from Greek mythology. Tantalum is a rare, hard, blue-gray, lustrous transition metal that is highly corrosion-resistant. It is part of the refractory metals group, which are widely used as minor components in alloys. The chemical inertness of tantalum makes it a valuable substance for laboratory equipment, and as a substitute for platinum. Its main use today is in tantalum capacitors in electronic equipment such as mobile phones, DVD players, video game systems and computers. Tantalum, always together with the chemically similar niobium, occurs in the mineral groups tantalite, columbite and coltan (a mix of columbite and tantalite, though not recognised as a separate mineral species). Tantalum is considered a technology-critical element.",

    "element": "Tantalum",
    "short": "Ta",
    "element_year": "1802",
    "element_discovered_name": "Anders Gustaf Ekeberg",
    "element_group": "Transition Metals",
    "element_appearance": "Gray Blue",
    "element_electrons": "73",
    "element_protons": "73",
    "element_neutron_common": "108",

    "radioactive": "No",
    "neutron_cross_sectional": "20.6 (b)",

    "electrical_type": "Conductor",
    "resistivity": "131 nΩm",
    "resistivity_mult": "0.0000001",
    "magnetic_type": "Paramagnetic",
    "superconducting_point": "4.47",

    "element_atomic_number": "73",
    "element_atomicmass": "180.947 (u)",
    "element_density": "16.4  (g/cm^3)",
    "element_electronegativty": "1.5",
    "element_block": "d - block",
    "element_shells_electrons": "K2 L8 M8 N32 O11 P2 Q0 R0",
    "element_model": "https://upload.wikimedia.org/wikipedia/commons/2/2b/Electron_shell_073_Tantalum_-_no_label.svg",

    "element_boiling_kelvin": "5731 (K)",
    "element_boiling_celsius": "5458 (°C)",
    "element_boiling_fahrenheit": "9856 (°F)",
    "element_melting_kelvin": "3290 (K)",
    "element_melting_celsius": "3017 (°C)",
    "element_melting_fahrenheit": "5463 (°F)",

    "element_electron_config": "4f^14, 5d^3, 6s^2",
    "element_ion_charge": "Ta^5+",
    "element_ionization_energy1": "7.5496 (eV)",
    "element_atomic_radius_e": "145 (pm)",
    "element_atomic_radius": "200 (pm)",
    "element_covalent_radius": "138 (pm)",
    "element_van_der_waals": "--- (pm)",

    "element_phase": "Solid",
    "element_fusion_heat": "36.57 (kJ/mol)",
    "element_specific_heat_capacity": "0.140 J/(g·K)",
    "element_vaporization_heat": "732.8 (kJ/mol)",

    "oxidation_state_neg": "3 1",
    "oxidation_state_pos": "1 2 3 4 5",

    "speed_of_sound_gas": "---",
    "speed_of_sound_liquid": "---",
    "speed_of_sound_solid": "3400 (m/s) [20°C]",

    "mohs_hardness": "6.5",
    "vickers_hardness": "873-1200 (MPa)",
    "brinell_hardness": "441-3430 (MPa)",

    "young_modulus": "186 (GPa)",
    "poisson_ratio": "0.34",
    "bulk_modulus": "200 (GPa)",
    "shear_modulus": "69 (GPa)",

    "earth_crust": "2.5",
    "urban_soils": "1.5",
    "sea_water": "<0.0025",
    "crustal_rocks": "2.4",
    "sun": null,
    "solar_system": "0.038",

    "cas_number": "7440-25-7",
    "eg_number": "231-135-5",

      "iso_1": "Ta-155",
      "iso_mass_1": "154.97459",
      "decay_type_1": "p",
      "iso_half_1": "2.9 ms",
      "iso_Z_1": "73",
      "iso_N_1": "82",
      "iso_A_1": "155",

      "iso_2": "Ta-156",
      "iso_mass_2": "155.97230",
      "decay_type_2": "p",
      "iso_half_2": "106 ms",
      "iso_Z_2": "73",
      "iso_N_2": "83",
      "iso_A_2": "156",

      "iso_3": "Ta-157",
      "iso_mass_3": "156.96819",
      "decay_type_3": "α",
      "iso_half_3": "10.1 ms",
      "iso_Z_3": "73",
      "iso_N_3": "84",
      "iso_A_3": "157",

      "iso_4": "Ta-158",
      "iso_mass_4": "157.96670",
      "decay_type_4": "α",
      "iso_half_4": "4.3 ms",
      "iso_Z_4": "73",
      "iso_N_4": "85",
      "iso_A_4": "158",

      "iso_5": "Ta-159",
      "iso_mass_5": "158.96318",
      "decay_type_5": "B+",
      "iso_half_5": "5.2 s",
      "iso_Z_5": "73",
      "iso_N_5": "86",
      "iso_A_5": "159",

      "iso_6": "Ta-160",
      "iso_mass_6": "159.96149",
      "decay_type_6": "B+",
      "iso_half_6": "9.4 s",
      "iso_Z_6": "73",
      "iso_N_6": "87",
      "iso_A_6": "160",

      "iso_7": "Ta-161",
      "iso_mass_7": "160.95842",
      "decay_type_7": "B+",
      "iso_half_7": "6.9 s",
      "iso_Z_7": "73",
      "iso_N_7": "88",
      "iso_A_7": "161",

      "iso_8": "Ta-162",
      "iso_mass_8": "161.95729",
      "decay_type_8": "B+",
      "iso_half_8": "8.2 s",
      "iso_Z_8": "73",
      "iso_N_8": "89",
      "iso_A_8": "162",

      "iso_9": "Ta-163",
      "iso_mass_9": "162.95433",
      "decay_type_9": "B+",
      "iso_half_9": "11.8 s",
      "iso_Z_9": "73",
      "iso_N_9": "90",
      "iso_A_9": "163",

      "iso_10": "Ta-164",
      "iso_mass_10": "163.95353",
      "decay_type_10": "B+",
      "iso_half_10": "14.2 s",
      "iso_Z_10": "73",
      "iso_N_10": "91",
      "iso_A_10": "164",

      "iso_11": "Ta-165",
      "iso_mass_11": "164.95077",
      "decay_type_11": "B+",
      "iso_half_11": "30.5 s",
      "iso_Z_11": "73",
      "iso_N_11": "92",
      "iso_A_11": "165",

      "iso_12": "Ta-166",
      "iso_mass_12": "165.95051",
      "decay_type_12": "B+",
      "iso_half_12": "26.9 s",
      "iso_Z_12": "73",
      "iso_N_12": "93",
      "iso_A_12": "166",

      "iso_13": "Ta-167",
      "iso_mass_13": "166.94809",
      "decay_type_13": "B+",
      "iso_half_13": "1.1 min",
      "iso_Z_13": "73",
      "iso_N_13": "94",
      "iso_A_13": "167",

      "iso_14": "Ta-168",
      "iso_mass_14": "167.94805",
      "decay_type_14": "B+",
      "iso_half_14": "1.1 min",
      "iso_Z_14": "73",
      "iso_N_14": "95",
      "iso_A_14": "168",

      "iso_15": "Ta-169",
      "iso_mass_15": "168.94601",
      "decay_type_15": "B+",
      "iso_half_15": "2.3 min",
      "iso_Z_15": "73",
      "iso_N_15": "96",
      "iso_A_15": "169",

      "iso_16": "Ta-170",
      "iso_mass_16": "169.94618",
      "decay_type_16": "B+",
      "iso_half_16": "2.3 min",
      "iso_Z_16": "73",
      "iso_N_16": "97",
      "iso_A_16": "170",

      "iso_17": "Ta-171",
      "iso_mass_17": "170.94448",
      "decay_type_17": "B+",
      "iso_half_17": "3.1 min",
      "iso_Z_17": "73",
      "iso_N_17": "98",
      "iso_A_17": "171",

      "iso_18": "Ta-172",
      "iso_mass_18": "171.94490",
      "decay_type_18": "B+",
      "iso_half_18": "3.1 min",
      "iso_Z_18": "73",
      "iso_N_18": "99",
      "iso_A_18": "172",

      "iso_19": "Ta-173",
      "iso_mass_19": "172.94375",
      "decay_type_19": "B+",
      "iso_half_19": "3.14 min",
      "iso_Z_19": "73",
      "iso_N_19": "100",
      "iso_A_19": "173",

      "iso_20": "Ta-174",
      "iso_mass_20": "173.94445",
      "decay_type_20": "B+",
      "iso_half_20": "1.14 h",
      "iso_Z_20": "73",
      "iso_N_20": "101",
      "iso_A_20": "174",

      "iso_21": "Ta-175",
      "iso_mass_21": "174.94374",
      "decay_type_21": "B+",
      "iso_half_21": "1.82 y",
      "iso_Z_21": "73",
      "iso_N_21": "102",
      "iso_A_21": "175",

      "iso_22": "Ta-176",
      "iso_mass_22": "175.94486",
      "decay_type_22": "B+",
      "iso_half_22": "8.125 h",
      "iso_Z_22": "73",
      "iso_N_22": "103",
      "iso_A_22": "176",

      "iso_23": "Ta-177",
      "iso_mass_23": "176.94447",
      "decay_type_23": "B+",
      "iso_half_23": "56.56 h",
      "iso_Z_23": "73",
      "iso_N_23": "104",
      "iso_A_23": "177",

      "iso_24": "Ta-178",
      "iso_mass_24": "177.94589",
      "decay_type_24": "B+",
      "iso_half_24": "2.36 h",
      "iso_Z_24": "73",
      "iso_N_24": "105",
      "iso_A_24": "178",

      "iso_25": "Ta-179",
      "iso_mass_25": "178.94593",
      "decay_type_25": "ε",
      "iso_half_25": "1.82 y",
      "iso_Z_25": "73",
      "iso_N_25": "106",
      "iso_A_25": "179",

      "iso_26": "Ta-180",
      "iso_mass_26": "179.94747",
      "decay_type_26": "B-",
      "iso_half_26": "8.152 h",
      "iso_Z_26": "73",
      "iso_N_26": "107",
      "iso_A_26": "180",

      "iso_27": "Ta-181",
      "iso_mass_27": "180.94788",
      "decay_type_27": "stable",
      "iso_half_27": "N/A",
      "iso_Z_27": "73",
      "iso_N_27": "108",
      "iso_A_27": "181",

      "iso_28": "Ta-182",
      "iso_mass_28": "181.95015",
      "decay_type_28": "B-",
      "iso_half_28": "114.43 d",
      "iso_Z_28": "73",
      "iso_N_28": "109",
      "iso_A_28": "182",

      "iso_29": "Ta-183",
      "iso_mass_29": "182.95137",
      "decay_type_29": "B-",
      "iso_half_29": "5.1 d",
      "iso_Z_29": "73",
      "iso_N_29": "110",
      "iso_A_29": "183",

      "iso_30": "Ta-184",
      "iso_mass_30": "183.95400",
      "decay_type_30": "B-",
      "iso_half_30": "8.7 h",
      "iso_Z_30": "73",
      "iso_N_30": "111",
      "iso_A_30": "184",

      "iso_31": "Ta-185",
      "iso_mass_31": "184.95556",
      "decay_type_31": "B-",
      "iso_half_31": "49.4 m",
      "iso_Z_31": "73",
      "iso_N_31": "112",
      "iso_A_31": "185",

      "iso_32": "Ta-186",
      "iso_mass_32": "185.95855",
      "decay_type_32": "B-",
      "iso_half_32": "10.5 m",
      "iso_Z_32": "73",
      "iso_N_32": "113",
      "iso_A_32": "186",

      "iso_33": "Ta-187",
      "iso_mass_33": "186.96053",
      "decay_type_33": "B-",
      "iso_half_33": "2.7 m",
      "iso_Z_33": "73",
      "iso_N_33": "114",
      "iso_A_33": "187",

      "iso_34": "Ta-188",
      "iso_mass_34": "187.96370",
      "decay_type_34": "B-",
      "iso_half_34": "1.5 m",
      "iso_Z_34": "73",
      "iso_N_34": "115",
      "iso_A_34": "188",

      "iso_35": "Ta-189",
      "iso_mass_35": "188.96583",
      "decay_type_35": "B-",
      "iso_half_35": "1.3 m",
      "iso_Z_35": "73",
      "iso_N_35": "116",
      "iso_A_35": "189",

      "iso_36": "Ta-190",
      "iso_mass_36": "189.96923",
      "decay_type_36": "B-",
      "iso_half_36": "0.9 m",
      "iso_Z_36": "73",
      "iso_N_36": "117",
      "iso_A_36": "190",

      "iso_37": "Ta-191",
      "iso_mass_37": "190.97160",
      "decay_type_37": "B-",
      "iso_half_37": "0.6 m",
      "iso_Z_37": "73",
      "iso_N_37": "118",
      "iso_A_37": "191",

      "iso_38": "Ta-192",
      "iso_mass_38": "191.97514",
      "decay_type_38": "B-",
      "iso_half_38": "0.4 m",
      "iso_Z_38": "73",
      "iso_N_38": "119",
      "iso_A_38": "192",

      "iso_39": "Ta-193",
      "iso_mass_39": "192.97791",
      "decay_type_39": "B-",
      "iso_half_39": "0.3 m",
      "iso_Z_39": "73",
      "iso_N_39": "120",
      "iso_A_39": "193",

      "iso_40": "Ta-194",
      "iso_mass_40": "193.98173",
      "decay_type_40": "B-",
      "iso_half_40": "0.2 m",
      "iso_Z_40": "73",
      "iso_N_40": "121",
      "iso_A_40": "194"
  }
]