[
  {
    "element_code": "AAqCuA7XBS5paZ4pDZZ",
    "wikilink": "https://en.wikipedia.org/wiki/Tellurium",
    "link": "https://upload.wikimedia.org/wikipedia/commons/c/c1/Tellurium2.jpg",
    "description": "Tellurium is a chemical element with the symbol Te and atomic number 52. It is a brittle, mildly toxic, rare, silver-white metalloid. Tellurium is chemically related to selenium and sulfur, all three of which are chalcogens. It is occasionally found in native form as elemental crystals. Tellurium is far more common in the Universe as a whole than on Earth. Its extreme rarity in the Earth's crust, comparable to that of platinum, is due partly to its formation of a volatile hydride that caused tellurium to be lost to space as a gas during the hot nebular formation of Earth, and partly to tellurium's low affinity for oxygen, which causes it to bind preferentially to other chalcophiles in dense minerals that sink into the core.",
    "element": "Tellurium",
    "short": "Te",
    "element_year": "1782",
    "element_discovered_name": "Franz-Joseph Müller von Reichenstein ",
    "element_group": "Metalloids",
    "element_appearance": "Silvery Lustrous Gray",
    "element_electrons": "52",
    "element_protons": "52",
    "element_neutron_common": "78",
    "radioactive": "No",
    "neutron_cross_sectional": "4.7 (b)",
    "electrical_type": "Semiconductor",
    "resistivity": "1",
    "resistivity_mult": "0.0001",
    "magnetic_type": "Diamagnetic",
    "superconducting_point": "---",
    "element_atomic_number": "52",
    "element_atomicmass": "127.60 (u)",
    "element_density": "6.24 (g/cm^3)",
    "element_electronegativty": "2.1",
    "element_block": "p - block",
    "element_shells_electrons": "K2 L8 18 N18 O6 P0 Q0 R0",
    "element_model": "https://upload.wikimedia.org/wikipedia/commons/thumb/2/24/Electron_shell_052_Tellurium_-_no_label.svg/1280px-Electron_shell_052_Tellurium_-_no_label.svg.png",
    "element_boiling_kelvin": "1261 (K)",
    "element_boiling_celsius": "988 (°C)",
    "element_boiling_fahrenheit": "1810 (°F)",
    "element_melting_kelvin": "722.66 (K)",
    "element_melting_celsius": "449.51 (°C)",
    "element_melting_fahrenheit": "841.12 (°F)",
    "element_electron_config": "4d^10 5s^2 5p^4",
    "element_ion_charge": "Te^2-",
    "element_ionization_energy1": "9.0096 (eV)",
    "element_ionization_energy2": "18.6 (eV)",
    "element_ionization_energy3": "27.96 (eV)",
    "element_ionization_energy4": "37.41 (eV)",
    "element_ionization_energy5": "58.75 (eV)",
    "element_ionization_energy6": "70.7 (eV)",
    "element_ionization_energy7": "137 (eV)",
    "element_atomic_radius_e": "140 (pm)",
    "element_atomic_radius": "123 (pm)",
    "element_covalent_radius": "135 (pm)",
    "element_van_der_waals": "206",
    "element_phase": "Solid",
    "element_fusion_heat": "17.49 (kJ/mol)",
    "element_specific_heat_capacity": "0.202 J/(g·K)",
    "element_vaporization_heat": "114.1 (kJ/mol)",
    "oxidation_state_neg": "2 1",
    "oxidation_state_pos": "1 2 3 4 5 6",
    "speed_of_sound_gas": "---",
    "speed_of_sound_liquid": "---",
    "speed_of_sound_solid": "2610 (m/s) [20°C]",
    "mohs_hardness": "2.25",
    "vickers_hardness": "---",
    "brinell_hardness": "180-270 (MPa)c",
    "young_modulus": "43 (GPa)",
    "poisson_ratio": "---",
    "bulk_modulus": "65 (GPa)",
    "shear_modulus": "16 (GPa)",
    "solar_system": "4.9",
    "iso_1": "104-Te",
    "iso_mass_1": "103.907",
    "decay_type_1": "B+",
    "iso_half_1": "18.3 minu-Tes",
    "iso_Z_1": "52",
    "iso_N_1": "52",
    "iso_A_1": "104",
    "iso_2": "105-Te",
    "iso_mass_2": "104.906",
    "decay_type_2": "B+",
    "iso_half_2": "1.4 minu-Tes",
    "iso_Z_2": "52",
    "iso_N_2": "53",
    "iso_A_2": "105",
    "iso_3": "106-Te",
    "iso_mass_3": "105.906",
    "decay_type_3": "B+",
    "iso_half_3": "70 seconds",
    "iso_Z_3": "52",
    "iso_N_3": "54",
    "iso_A_3": "106",
    "iso_4": "107-Te",
    "iso_mass_4": "106.905",
    "decay_type_4": "B+",
    "iso_half_4": "2.49 minu-Tes",
    "iso_Z_4": "52",
    "iso_N_4": "55",
    "iso_A_4": "107",
    "iso_5": "108-Te",
    "iso_mass_5": "107.905",
    "decay_type_5": "B+",
    "iso_half_5": "4.2 minu-Tes",
    "iso_Z_5": "52",
    "iso_N_5": "56",
    "iso_A_5": "108",
    "iso_6": "109-Te",
    "iso_mass_6": "108.904",
    "decay_type_6": "B+",
    "iso_half_6": "6.58 minu-Tes",
    "iso_Z_6": "52",
    "iso_N_6": "57",
    "iso_A_6": "109",
    "iso_7": "110-Te",
    "iso_mass_7": "109.904",
    "decay_type_7": "B+",
    "iso_half_7": "18.6 minu-Tes",
    "iso_Z_7": "52",
    "iso_N_7": "58",
    "iso_A_7": "110",
    "iso_8": "111-Te",
    "iso_mass_8": "110.904",
    "decay_type_8": "B+",
    "iso_half_8": "19.16 minu-Tes",
    "iso_Z_8": "52",
    "iso_N_8": "59",
    "iso_A_8": "111",
    "iso_9": "112-Te",
    "iso_mass_9": "111.904",
    "decay_type_9": "B+",
    "iso_half_9": "3.2 minu-Tes",
    "iso_Z_9": "52",
    "iso_N_9": "60",
    "iso_A_9": "112",
    "iso_10": "113-Te",
    "iso_mass_10": "112.904",
    "decay_type_10": "B+",
    "iso_half_10": "1.2 minu-Tes",
    "iso_Z_10": "52",
    "iso_N_10": "61",
    "iso_A_10": "113",
    "iso_11": "114-Te",
    "iso_mass_11": "113.904",
    "decay_type_11": "B+",
    "iso_half_11": "15.2 minu-Tes",
    "iso_Z_11": "52",
    "iso_N_11": "62",
    "iso_A_11": "114",
    "iso_12": "115-Te",
    "iso_mass_12": "114.904",
    "decay_type_12": "B+",
    "iso_half_12": "0.85 minu-Tes",
    "iso_Z_12": "52",
    "iso_N_12": "63",
    "iso_A_12": "115",
    "iso_13": "116-Te",
    "iso_mass_13": "115.904",
    "decay_type_13": "B+",
    "iso_half_13": "2.49 minu-Tes",
    "iso_Z_13": "52",
    "iso_N_13": "64",
    "iso_A_13": "116",
    "iso_14": "117-Te",
    "iso_mass_14": "116.904",
    "decay_type_14": "B+",
    "iso_half_14": "0.21 minu-Tes",
    "iso_Z_14": "52",
    "iso_N_14": "65",
    "iso_A_14": "117",
    "iso_15": "118-Te",
    "iso_mass_15": "117.904",
    "decay_type_15": "B+",
    "iso_half_15": "6.00 minu-Tes",
    "iso_Z_15": "52",
    "iso_N_15": "66",
    "iso_A_15": "118",
    "iso_16": "119-Te",
    "iso_mass_16": "118.904",
    "decay_type_16": "B+",
    "iso_half_16": "16.05 minu-Tes",
    "iso_Z_16": "52",
    "iso_N_16": "67",
    "iso_A_16": "119",
    "iso_17": "120-Te",
    "iso_mass_17": "119.904",
    "decay_type_17": "stable",
    "iso_half_17": "stable",
    "iso_Z_17": "52",
    "iso_N_17": "68",
    "iso_A_17": "120",
    "iso_18": "121-Te",
    "iso_mass_18": "120.904",
    "decay_type_18": "EC",
    "iso_half_18": "16.78 days",
    "iso_Z_18": "52",
    "iso_N_18": "69",
    "iso_A_18": "121",
    "iso_19": "122-Te",
    "iso_mass_19": "121.903",
    "decay_type_19": "stable",
    "iso_half_19": "stable",
    "iso_Z_19": "52",
    "iso_N_19": "70",
    "iso_A_19": "122",
    "iso_20": "123-Te",
    "iso_mass_20": "122.904",
    "decay_type_20": "stable",
    "iso_half_20": "stable",
    "iso_Z_20": "52",
    "iso_N_20": "71",
    "iso_A_20": "123",
    "iso_21": "124-Te",
    "iso_mass_21": "123.903",
    "decay_type_21": "stable",
    "iso_half_21": "stable",
    "iso_Z_21": "52",
    "iso_N_21": "72",
    "iso_A_21": "124",
    "iso_22": "125-Te",
    "iso_mass_22": "124.904",
    "decay_type_22": "stable",
    "iso_half_22": "stable",
    "iso_Z_22": "52",
    "iso_N_22": "73",
    "iso_A_22": "125",
    "iso_23": "126-Te",
    "iso_mass_23": "125.904",
    "decay_type_23": "stable",
    "iso_half_23": "stable",
    "iso_Z_23": "52",
    "iso_N_23": "74",
    "iso_A_23": "126",
    "iso_24": "127-Te",
    "iso_mass_24": "126.905",
    "decay_type_24": "B-",
    "iso_half_24": "9.35 hours",
    "iso_Z_24": "52",
    "iso_N_24": "75",
    "iso_A_24": "127",
    "iso_25": "128-Te",
    "iso_mass_25": "127.904",
    "decay_type_25": "B-",
    "iso_half_25": "2.2 × 10^24 years",
    "iso_Z_25": "52",
    "iso_N_25": "76",
    "iso_A_25": "128",
    "iso_26": "129-Te",
    "iso_mass_26": "128.906",
    "decay_type_26": "B-",
    "iso_half_26": "69.6 minu-Tes",
    "iso_Z_26": "52",
    "iso_N_26": "77",
    "iso_A_26": "129",
    "iso_27": "130-Te",
    "iso_mass_27": "129.906",
    "decay_type_27": "B-",
    "iso_half_27": "8.2 × 10^20 years",
    "iso_Z_27": "52",
    "iso_N_27": "78",
    "iso_A_27": "130",
    "iso_28": "131-Te",
    "iso_mass_28": "130.907",
    "decay_type_28": "B-",
    "iso_half_28": "25 minu-Tes",
    "iso_Z_28": "52",
    "iso_N_28": "79",
    "iso_A_28": "131",
    "iso_29": "132-Te",
    "iso_mass_29": "131.907",
    "decay_type_29": "B-",
    "iso_half_29": "3.2 days",
    "iso_Z_29": "52",
    "iso_N_29": "80",
    "iso_A_29": "132",
    "iso_30": "133-Te",
    "iso_mass_30": "132.908",
    "decay_type_30": "B-",
    "iso_half_30": "12.5 minu-Tes",
    "iso_Z_30": "52",
    "iso_N_30": "81",
    "iso_A_30": "133",
    "iso_31": "134-Te",
    "iso_mass_31": "133.909",
    "decay_type_31": "B-",
    "iso_half_31": "41.8 minu-Tes",
    "iso_Z_31": "52",
    "iso_N_31": "82",
    "iso_A_31": "134",
    "iso_32": "135-Te",
    "iso_mass_32": "134.910",
    "decay_type_32": "B-",
    "iso_half_32": "19 seconds",
    "iso_Z_32": "52",
    "iso_N_32": "83",
    "iso_A_32": "135",
    "iso_33": "136-Te",
    "iso_mass_33": "135.911",
    "decay_type_33": "B-",
    "iso_half_33": "17.6 seconds",
    "iso_Z_33": "52",
    "iso_N_33": "84",
    "iso_A_33": "136",
    "iso_34": "137-Te",
    "iso_mass_34": "136.912",
    "decay_type_34": "B-",
    "iso_half_34": "2.49 seconds",
    "iso_Z_34": "52",
    "iso_N_34": "85",
    "iso_A_34": "137",
    "iso_35": "138-Te",
    "iso_mass_35": "137.913",
    "decay_type_35": "B-",
    "iso_half_35": "1.4 seconds",
    "iso_Z_35": "52",
    "iso_N_35": "86",
    "iso_A_35": "138",
    "iso_36": "139-Te",
    "iso_mass_36": "138.914",
    "decay_type_36": "B-",
    "iso_half_36": "0.97 seconds",
    "iso_Z_36": "52",
    "iso_N_36": "87",
    "iso_A_36": "139",
    "iso_37": "140-Te",
    "iso_mass_37": "139.915",
    "decay_type_37": "B-",
    "iso_half_37": "0.86 seconds",
    "iso_Z_37": "52",
    "iso_N_37": "88",
    "iso_A_37": "140",
    "iso_38": "141-Te",
    "iso_mass_38": "140.916",
    "decay_type_38": "B-",
    "iso_half_38": "0.42 seconds",
    "iso_Z_38": "52",
    "iso_N_38": "89",
    "iso_A_38": "141",
    "iso_39": "142-Te",
    "iso_mass_39": "141.917",
    "decay_type_39": "B-",
    "iso_half_39": "0.23 seconds",
    "iso_Z_39": "52",
    "iso_N_39": "90",
    "iso_A_39": "142",
    "crystal_structure": "Hexagonal",
    "lattice_constants": null,
    "debye_temperature": {
      "low_temperature_limit": "150 K",
      "room_temperature": "140 K"
    }
  }
]