[
  {
"element_code": "AAFq8fR3CPBjBHeciZZ",
    "wikilink": "https://en.wikipedia.org/wiki/Terbium",
    "link": "https://upload.wikimedia.org/wikipedia/commons/9/9a/Terbium-2.jpg",
    "description": "Terbium is a chemical element with the symbol Tb and atomic number 65. It is a silvery-white, rare earth metal that is malleable, ductile, and soft enough to be cut with a knife. The ninth member of the lanthanide series, terbium is a fairly electropositive metal that reacts with water, evolving hydrogen gas. Terbium is never found in nature as a free element, but it is contained in many minerals, including cerite, gadolinite, monazite, xenotime, and euxenite.",

    "element": "Terbium",
    "short": "Tb",
    "element_year": "1843",
    "element_discovered_name": "Carl Gustaf Mosander",
    "element_group": "Lanthanoids",
    "element_appearance": "Silvery White",
    "element_electrons": "65",
    "element_protons": "65",
    "element_neutron_common": "94",

    "radioactive": "No",
    "neutron_cross_sectional": "23.4 (b)",

    "electrical_type": "Conductor",
    "resistivity": "1.150 μΩm",
    "resistivity_mult": "0.000001",
    "magnetic_type": "Paramagnetic",
    "superconducting_point": "---",

    "element_atomic_number": "65",
    "element_atomicmass": "158.925 (u)",
    "element_density": "8.23  (g/cm^3)",
    "element_electronegativty": "1.2",
    "element_block": "f - block",
    "element_shells_electrons": "K2 L8 M18 N27 O8 P2 Q0 R0",
    "element_model": "https://upload.wikimedia.org/wikipedia/commons/thumb/0/07/Electron_shell_065_Terbium_-_no_label.svg/1024px-Electron_shell_065_Terbium_-_no_label.svg.png",

    "element_boiling_kelvin": "3396 (K)",
    "element_boiling_celsius": "3123 (°C)",
    "element_boiling_fahrenheit": "5653 (°F)",
    "element_melting_kelvin": "1629 (K)",
    "element_melting_celsius": "1356 (°C)",
    "element_melting_fahrenheit": "2473 (°F)",

    "element_electron_config": "4f^9 6s^2",
    "element_ion_charge": "Tb^3+",
    "element_ionization_energy1": "5.8638 (eV)",
    "element_ionization_energy2": "11.52 (eV)",
    "element_ionization_energy3": "21.91 (eV)",
    "element_ionization_energy4": "39.79 (eV)",
    "element_atomic_radius_e": "175 (pm)",
    "element_atomic_radius": "225 (pm)",
    "element_covalent_radius": "--- (pm)",
    "element_van_der_waals": "---",

    "element_phase": "Solid",
    "element_fusion_heat": "10.15 (kJ/mol)",
    "element_specific_heat_capacity": "0.182 J/(g·K)",
    "element_vaporization_heat": "391 (kJ/mol)",

    "oxidation_state_neg": "0",
    "oxidation_state_pos": "1 2 3 4",

    "speed_of_sound_gas": "---",
    "speed_of_sound_liquid": "---",
    "speed_of_sound_solid": "2620 (m/s) [20°C]",

    "mohs_hardness": "---",
    "vickers_hardness": "450-863 (MPa)",
    "brinell_hardness": "677-1200 (MPa)",

    "young_modulus": "55.7 (GPa) [α-form]",
    "poisson_ratio": "0.261 [α-form]",
    "bulk_modulus": "38.7 (GPa) [α-form]",
    "shear_modulus": "22.1 (GPa) [α-form]",

    "sea_water": "0.0014",
    "crustal_rocks": "1.0",
    "sun": "0.02",
    "solar_system": "0.060",

    "cas_number": "7440-27-9",
    "eg_number": "231-137-6",

      "iso_1": "Tb-135",
      "iso_mass_1": "134.96476",
      "decay_type_1": "B+",
      "iso_half_1": "0.94 ms",
      "iso_Z_1": "65",
      "iso_N_1": "70",
      "iso_A_1": "135",

      "iso_2": "Tb-136",
      "iso_mass_2": "135.96138",
      "decay_type_2": "B+",
      "iso_half_2": "0.2 s",
      "iso_Z_2": "65",
      "iso_N_2": "71",
      "iso_A_2": "136",

      "iso_3": "Tb-137",
      "iso_mass_3": "136.95598",
      "decay_type_3": "B+",
      "iso_half_3": "600 ms",
      "iso_Z_3": "65",
      "iso_N_3": "72",
      "iso_A_3": "137",

      "iso_4": "Tb-138",
      "iso_mass_4": "137.95316",
      "decay_type_4": "B+",
      "iso_half_4": "800 ms",
      "iso_Z_4": "65",
      "iso_N_4": "73",
      "iso_A_4": "138",

      "iso_5": "Tb-139",
      "iso_mass_5": "138.94829",
      "decay_type_5": "B+",
      "iso_half_5": "1.6 s",
      "iso_Z_5": "65",
      "iso_N_5": "74",
      "iso_A_5": "139",

      "iso_6": "Tb-140",
      "iso_mass_6": "139.94581",
      "decay_type_6": "B+",
      "iso_half_6": "2.4 s",
      "iso_Z_6": "65",
      "iso_N_6": "75",
      "iso_A_6": "140",

      "iso_7": "Tb-141",
      "iso_mass_7": "140.94145",
      "decay_type_7": "B+",
      "iso_half_7": "3.5 s",
      "iso_Z_7": "65",
      "iso_N_7": "76",
      "iso_A_7": "141",

      "iso_8": "Tb-142",
      "iso_mass_8": "141.93874",
      "decay_type_8": "B+",
      "iso_half_8": "597 ms",
      "iso_Z_8": "65",
      "iso_N_8": "77",
      "iso_A_8": "142",

      "iso_9": "Tb-143",
      "iso_mass_9": "142.93512",
      "decay_type_9": "B+",
      "iso_half_9": "12 s",
      "iso_Z_9": "65",
      "iso_N_9": "78",
      "iso_A_9": "143",

      "iso_10": "Tb-144",
      "iso_mass_10": "143.93305",
      "decay_type_10": "B+",
      "iso_half_10": "1 s",
      "iso_Z_10": "65",
      "iso_N_10": "79",
      "iso_A_10": "144",

      "iso_11": "Tb-145",
      "iso_mass_11": "144.92927",
      "decay_type_11": "B+",
      "iso_half_11": "20 min",
      "iso_Z_11": "65",
      "iso_N_11": "80",
      "iso_A_11": "145",

      "iso_12": "Tb-146",
      "iso_mass_12": "145.92725",
      "decay_type_12": "B+",
      "iso_half_12": "8 s",
      "iso_Z_12": "65",
      "iso_N_12": "81",
      "iso_A_12": "146",

      "iso_13": "Tb-147",
      "iso_mass_13": "146.92405",
      "decay_type_13": "B+",
      "iso_half_13": "1.64 h",
      "iso_Z_13": "65",
      "iso_N_13": "82",
      "iso_A_13": "147",

      "iso_14": "Tb-148",
      "iso_mass_14": "147.92427",
      "decay_type_14": "B+",
      "iso_half_14": "60 min",
      "iso_Z_14": "65",
      "iso_N_14": "83",
      "iso_A_14": "148",

      "iso_15": "Tb-149",
      "iso_mass_15": "148.92325",
      "decay_type_15": "B+",
      "iso_half_15": "4.118 h",
      "iso_Z_15": "65",
      "iso_N_15": "84",
      "iso_A_15": "149",

      "iso_16": "Tb-150",
      "iso_mass_16": "149.92366",
      "decay_type_16": "B+",
      "iso_half_16": "3.48 h",
      "iso_Z_16": "65",
      "iso_N_16": "85",
      "iso_A_16": "150",

      "iso_17": "Tb-151",
      "iso_mass_17": "150.92310",
      "decay_type_17": "B+",
      "iso_half_17": "17.609 h",
      "iso_Z_17": "65",
      "iso_N_17": "86",
      "iso_A_17": "151",

      "iso_18": "Tb-152",
      "iso_mass_18": "151.92407",
      "decay_type_18": "B+",
      "iso_half_18": "17.5 h",
      "iso_Z_18": "65",
      "iso_N_18": "87",
      "iso_A_18": "152",

      "iso_19": "Tb-153",
      "iso_mass_19": "152.92344",
      "decay_type_19": "B+",
      "iso_half_19": "2.34 d",
      "iso_Z_19": "65",
      "iso_N_19": "88",
      "iso_A_19": "153",

      "iso_20": "Tb-154",
      "iso_mass_20": "153.92468",
      "decay_type_20": "B+",
      "iso_half_20": "21.5 h",
      "iso_Z_20": "65",
      "iso_N_20": "89",
      "iso_A_20": "154",

      "iso_21": "Tb-155",
      "iso_mass_21": "154.92351",
      "decay_type_21": "B+",
      "iso_half_21": "5.32 d",
      "iso_Z_21": "65",
      "iso_N_21": "90",
      "iso_A_21": "155",

      "iso_22": "Tb-156",
      "iso_mass_22": "155.92476",
      "decay_type_22": "B+",
      "iso_half_22": "5.35 d",
      "iso_Z_22": "65",
      "iso_N_22": "91",
      "iso_A_22": "156",

      "iso_23": "Tb-157",
      "iso_mass_23": "156.92403",
      "decay_type_23": "B+",
      "iso_half_23": "71 y",
      "iso_Z_23": "65",
      "iso_N_23": "92",
      "iso_A_23": "157",

      "iso_24": "Tb-158",
      "iso_mass_24": "157.92542",
      "decay_type_24": "B+",
      "iso_half_24": "180 y",
      "iso_Z_24": "65",
      "iso_N_24": "93",
      "iso_A_24": "158",

      "iso_25": "Tb-159",
      "iso_mass_25": "158.92535",
      "decay_type_25": "stable",
      "iso_half_25": "stable",
      "iso_Z_25": "65",
      "iso_N_25": "94",
      "iso_A_25": "159",

      "iso_26": "Tb-160",
      "iso_mass_26": "159.92717",
      "decay_type_26": "B-",
      "iso_half_26": "72.3 d",
      "iso_Z_26": "65",
      "iso_N_26": "95",
      "iso_A_26": "160",

      "iso_27": "Tb-161",
      "iso_mass_27": "160.92757",
      "decay_type_27": "B-",
      "iso_half_27": "6.89 d",
      "iso_Z_27": "65",
      "iso_N_27": "96",
      "iso_A_27": "161",

      "iso_28": "Tb-162",
      "iso_mass_28": "161.92949",
      "decay_type_28": "B-",
      "iso_half_28": "8.2 min",
      "iso_Z_28": "65",
      "iso_N_28": "97",
      "iso_A_28": "162",

      "iso_29": "Tb-163",
      "iso_mass_29": "162.93065",
      "decay_type_29": "B-",
      "iso_half_29": "19.5 s",
      "iso_Z_29": "65",
      "iso_N_29": "98",
      "iso_A_29": "163",

      "iso_30": "Tb-164",
      "iso_mass_30": "163.93335",
      "decay_type_30": "B-",
      "iso_half_30": "7.7 s",
      "iso_Z_30": "65",
      "iso_N_30": "99",
      "iso_A_30": "164",

      "iso_31": "Tb-165",
      "iso_mass_31": "164.93488",
      "decay_type_31": "B-",
      "iso_half_31": "2.9 s",
      "iso_Z_31": "65",
      "iso_N_31": "100",
      "iso_A_31": "165",

      "iso_32": "Tb-166",
      "iso_mass_32": "165.93786",
      "decay_type_32": "B-",
      "iso_half_32": "1.4 s",
      "iso_Z_32": "65",
      "iso_N_32": "101",
      "iso_A_32": "166",

      "iso_33": "Tb-167",
      "iso_mass_33": "166.93996",
      "decay_type_33": "B-",
      "iso_half_33": "0.9 s",
      "iso_Z_33": "65",
      "iso_N_33": "102",
      "iso_A_33": "167",

      "iso_34": "Tb-168",
      "iso_mass_34": "167.94340",
      "decay_type_34": "B-",
      "iso_half_34": "0.6 s",
      "iso_Z_34": "65",
      "iso_N_34": "103",
      "iso_A_34": "168",

      "iso_35": "Tb-169",
      "iso_mass_35": "168.94597",
      "decay_type_35": "B-",
      "iso_half_35": "0.3 s",
      "iso_Z_35": "65",
      "iso_N_35": "104",
      "iso_A_35": "169",

      "iso_36": "Tb-170",
      "iso_mass_36": "169.94984",
      "decay_type_36": "B-",
      "iso_half_36": "0.2 s",
      "iso_Z_36": "65",
      "iso_N_36": "105",
      "iso_A_36": "170"
  }
]