[
  {
"element_code": "AA83rK2xLmvb6zvnnZZ",
    "wikilink": "https://en.wikipedia.org/wiki/Thallium",
    "link": "https://upload.wikimedia.org/wikipedia/commons/b/bb/Thallium_pieces_in_ampoule.jpg",
    "description": "Thallium is a chemical element with the symbol Tl and atomic number 81. It is a gray post-transition metal that is not found free in nature. When isolated, thallium resembles tin, but discolors when exposed to air. Chemists William Crookes and Claude-Auguste Lamy discovered thallium independently in 1861, in residues of sulfuric acid production. Both used the newly developed method of flame spectroscopy, in which thallium produces a notable green spectral line. Thallium, from Greek θαλλός, thallós, meaning \"a green shoot or twig\", was named by Crookes. It was isolated by both Lamy and Crookes in 1862; Lamy by electrolysis, and Crookes by precipitation and melting of the resultant powder. Crookes exhibited it as a powder precipitated by zinc at the International exhibition, which opened on 1 May that year.",

    "element": "Thallium",
    "short": "Tl",
    "element_year": "1861",
    "element_discovered_name": "William Crookes",
    "element_group": "Post-Transition Metals",
    "element_appearance": "Silvery white",
    "element_electrons": "81",
    "element_protons": "81",
    "element_neutron_common": "124",

    "radioactive": "No",
    "neutron_cross_sectional": "3.43 (b)",

    "electrical_type": "Conductor",
    "resistivity": "1.5",
    "resistivity_mult": "0.0000001",
    "magnetic_type": "Diamagnetic",
    "superconducting_point": "2.38",

    "element_atomic_number": "81",
    "element_atomicmass": "204.38 (u)",
    "element_density": "11.22 (g/cm^3)",
    "element_electronegativty": "1.62",
    "element_block": "p - block",
    "element_shells_electrons": "K2 L8 M18 N32 O18 P3 Q0 R0",
    "element_model": "https://upload.wikimedia.org/wikipedia/commons/thumb/e/eb/Electron_shell_081_Thallium_-_no_label.svg/800px-Electron_shell_081_Thallium_-_no_label.svg.png",

    "element_boiling_kelvin": "1746 (K)",
    "element_boiling_celsius": "1473 (°C)",
    "element_boiling_fahrenheit": "2683 (°F)",
    "element_melting_kelvin": "577 (K)",
    "element_melting_celsius": "304 (°C)",
    "element_melting_fahrenheit": "579 (°F)",

    "element_electron_config": "4f^14, 5d^10, 6s^2, 6p^1",
    "element_ion_charge": "Tl^+, Tl^3+",
    "element_ionization_energy1": "6.1082 (eV)",
    "element_ionization_energy2": "20.428 (eV)",
    "element_ionization_energy3": "29.83 (eV)",
    "element_atomic_radius_e": "190 (pm)",
    "element_atomic_radius": "156 (pm)",
    "element_covalent_radius": "148 (pm)",
    "element_van_der_waals": "196 (pm)",

    "element_phase": "Solid",
    "element_fusion_heat": "4.14 (kJ/mol)",
    "element_specific_heat_capacity": "0.129 J/(g·K)",
    "element_vaporization_heat": "165 (kJ/mol)",

    "oxidation_state_neg": "5 2 1",
    "oxidation_state_pos": "1 2 3",

    "speed_of_sound_gas": "---",
    "speed_of_sound_liquid": "---",
    "speed_of_sound_solid": "818 (m/s) [20°C]",

    "mohs_hardness": "1.2",
    "vickers_hardness": "---",
    "brinell_hardness": "26.5-44.7 (MPa)",

    "young_modulus": "8 (GPa)",
    "poisson_ratio": "0.45",
    "bulk_modulus": "43 (GPa)",
    "shear_modulus": "2.8 (GPa)",

    "earth_crust": "1.0",
    "urban_soils": "1.1",
    "sea_water": null,
    "crustal_rocks": "0.47",
    "sun": "0.2",
    "solar_system": "0.19",

      "iso_1": "Tl-176",
      "iso_mass_1": "176.00059",
      "decay_type_1": "p",
      "iso_half_1": "2.4 ms",
      "iso_Z_1": "81",
      "iso_N_1": "95",
      "iso_A_1": "176",

      "iso_2": "Tl-177",
      "iso_mass_2": "176.99643",
      "decay_type_2": "α",
      "iso_half_2": "18 ms",
      "iso_Z_2": "81",
      "iso_N_2": "96",
      "iso_A_2": "177",

      "iso_3": "Tl-178",
      "iso_mass_3": "177.99490",
      "decay_type_3": "α",
      "iso_half_3": "255 ms",
      "iso_Z_3": "81",
      "iso_N_3": "97",
      "iso_A_3": "178",

      "iso_4": "Tl-179",
      "iso_mass_4": "178.99109",
      "decay_type_4": "α",
      "iso_half_4": "437 ms",
      "iso_Z_4": "81",
      "iso_N_4": "98",
      "iso_A_4": "179",

      "iso_5": "Tl-180",
      "iso_mass_5": "179.98991",
      "decay_type_5": "B+",
      "iso_half_5": "1.09 s",
      "iso_Z_5": "81",
      "iso_N_5": "99",
      "iso_A_5": "180",

      "iso_6": "Tl-181",
      "iso_mass_6": "180.98626",
      "decay_type_6": "B+",
      "iso_half_6": "2.9 s",
      "iso_Z_6": "81",
      "iso_N_6": "100",
      "iso_A_6": "181",

      "iso_7": "Tl-182",
      "iso_mass_7": "181.98567",
      "decay_type_7": "B+",
      "iso_half_7": "2.0 s",
      "iso_Z_7": "81",
      "iso_N_7": "101",
      "iso_A_7": "182",

      "iso_8": "Tl-183",
      "iso_mass_8": "182.98219",
      "decay_type_8": "B+",
      "iso_half_8": "6.9 s",
      "iso_Z_8": "81",
      "iso_N_8": "102",
      "iso_A_8": "183",

      "iso_9": "Tl-184",
      "iso_mass_9": "183.98187",
      "decay_type_9": "B+",
      "iso_half_9": "9.7 s",
      "iso_Z_9": "81",
      "iso_N_9": "103",
      "iso_A_9": "184",

      "iso_10": "Tl-185",
      "iso_mass_10": "184.97935",
      "decay_type_10": "B+",
      "iso_half_10": "9.7 s",
      "iso_Z_10": "81",
      "iso_N_10": "104",
      "iso_A_10": "185",

      "iso_11": "Tl-186",
      "iso_mass_11": "185.97935",
      "decay_type_11": "B+",
      "iso_half_11": "1.38 min",
      "iso_Z_11": "81",
      "iso_N_11": "105",
      "iso_A_11": "186",

      "iso_12": "Tl-187",
      "iso_mass_12": "186.97758",
      "decay_type_12": "B+",
      "iso_half_12": "2.0 min",
      "iso_Z_12": "81",
      "iso_N_12": "106",
      "iso_A_12": "187",

      "iso_13": "Tl-188",
      "iso_mass_13": "187.97758",
      "decay_type_13": "B+",
      "iso_half_13": "3.25 min",
      "iso_Z_13": "81",
      "iso_N_13": "107",
      "iso_A_13": "188",

      "iso_14": "Tl-189",
      "iso_mass_14": "188.97583",
      "decay_type_14": "B+",
      "iso_half_14": "10.4 min",
      "iso_Z_14": "81",
      "iso_N_14": "108",
      "iso_A_14": "189",

      "iso_15": "Tl-190",
      "iso_mass_15": "189.97583",
      "decay_type_15": "B+",
      "iso_half_15": "20.0 min",
      "iso_Z_15": "81",
      "iso_N_15": "109",
      "iso_A_15": "190",

      "iso_16": "Tl-191",
      "iso_mass_16": "190.97367",
      "decay_type_16": "B+",
      "iso_half_16": "49.7 min",
      "iso_Z_16": "81",
      "iso_N_16": "110",
      "iso_A_16": "191",

      "iso_17": "Tl-192",
      "iso_mass_17": "191.97367",
      "decay_type_17": "B+",
      "iso_half_17": "4.85 h",
      "iso_Z_17": "81",
      "iso_N_17": "111",
      "iso_A_17": "192",

      "iso_18": "Tl-193",
      "iso_mass_18": "192.97167",
      "decay_type_18": "B+",
      "iso_half_18": "11.8 h",
      "iso_Z_18": "81",
      "iso_N_18": "112",
      "iso_A_18": "193",

      "iso_19": "Tl-194",
      "iso_mass_19": "193.97167",
      "decay_type_19": "B+",
      "iso_half_19": "444 y",
      "iso_Z_19": "81",
      "iso_N_19": "113",
      "iso_A_19": "194",

      "iso_20": "Tl-195",
      "iso_mass_20": "194.96967",
      "decay_type_20": "B+",
      "iso_half_20": "9.9 h",
      "iso_Z_20": "81",
      "iso_N_20": "114",
      "iso_A_20": "195",

      "iso_21": "Tl-196",
      "iso_mass_21": "195.96967",
      "decay_type_21": "B+",
      "iso_half_21": "64.14 h",
      "iso_Z_21": "81",
      "iso_N_21": "115",
      "iso_A_21": "196",

      "iso_22": "Tl-197",
      "iso_mass_22": "196.96767",
      "decay_type_22": "B+",
      "iso_half_22": "N/A",
      "iso_Z_22": "81",
      "iso_N_22": "116",
      "iso_A_22": "197",

      "iso_23": "Tl-198",
      "iso_mass_23": "197.96767",
      "decay_type_23": "B+",
      "iso_half_23": "N/A",
      "iso_Z_23": "81",
      "iso_N_23": "117",
      "iso_A_23": "198",

      "iso_24": "Tl-199",
      "iso_mass_24": "198.96567",
      "decay_type_24": "B+",
      "iso_half_24": "N/A",
      "iso_Z_24": "81",
      "iso_N_24": "118",
      "iso_A_24": "199",

      "iso_25": "Tl-200",
      "iso_mass_25": "199.96567",
      "decay_type_25": "B+",
      "iso_half_25": "N/A",
      "iso_Z_25": "81",
      "iso_N_25": "119",
      "iso_A_25": "200",

      "iso_26": "Tl-201",
      "iso_mass_26": "200.96367",
      "decay_type_26": "B+",
      "iso_half_26": "73.1 h",
      "iso_Z_26": "81",
      "iso_N_26": "120",
      "iso_A_26": "201",

      "iso_27": "Tl-202",
      "iso_mass_27": "201.96300",
      "decay_type_27": "B+",
      "iso_half_27": "12.23 d",
      "iso_Z_27": "81",
      "iso_N_27": "121",
      "iso_A_27": "202",

      "iso_28": "Tl-203",
      "iso_mass_28": "202.97232",
      "decay_type_28": "stable",
      "iso_half_28": "N/A",
      "iso_Z_28": "81",
      "iso_N_28": "122",
      "iso_A_28": "203",

      "iso_29": "Tl-204",
      "iso_mass_29": "203.97386",
      "decay_type_29": "B-",
      "iso_half_29": "3.78 y",
      "iso_Z_29": "81",
      "iso_N_29": "123",
      "iso_A_29": "204",

      "iso_30": "Tl-205",
      "iso_mass_30": "204.97443",
      "decay_type_30": "stable",
      "iso_half_30": "N/A",
      "iso_Z_30": "81",
      "iso_N_30": "124",
      "iso_A_30": "205",

      "iso_31": "Tl-206",
      "iso_mass_31": "205.97751",
      "decay_type_31": "B-",
      "iso_half_31": "4.2 min",
      "iso_Z_31": "81",
      "iso_N_31": "125",
      "iso_A_31": "206",

      "iso_32": "Tl-207",
      "iso_mass_32": "206.97847",
      "decay_type_32": "B-",
      "iso_half_32": "4.77 min",
      "iso_Z_32": "81",
      "iso_N_32": "126",
      "iso_A_32": "207",

      "iso_33": "Tl-208",
      "iso_mass_33": "207.98202",
      "decay_type_33": "B-",
      "iso_half_33": "3.1 min",
      "iso_Z_33": "81",
      "iso_N_33": "127",
      "iso_A_33": "208",

      "iso_34": "Tl-209",
      "iso_mass_34": "208.98535",
      "decay_type_34": "B-",
      "iso_half_34": "2.2 min",
      "iso_Z_34": "81",
      "iso_N_34": "128",
      "iso_A_34": "209",

      "iso_35": "Tl-210",
      "iso_mass_35": "209.99007",
      "decay_type_35": "B-",
      "iso_half_35": "1.3 min",
      "iso_Z_35": "81",
      "iso_N_35": "129",
      "iso_A_35": "210",

      "iso_36": "Tl-211",
      "iso_mass_36": "210.99348",
      "decay_type_36": "B-",
      "iso_half_36": "1.0 min",
      "iso_Z_36": "81",
      "iso_N_36": "130",
      "iso_A_36": "211",

      "iso_37": "Tl-212",
      "iso_mass_37": "211.99834",
      "decay_type_37": "B-",
      "iso_half_37": "30 s",
      "iso_Z_37": "81",
      "iso_N_37": "131",
      "iso_A_37": "212",

      "iso_38": "Tl-213",
      "iso_mass_38": "213.00248",
      "decay_type_38": "B-",
      "iso_half_38": "24 s",
      "iso_Z_38": "81",
      "iso_N_38": "132",
      "iso_A_38": "213",

      "iso_39": "Tl-214",
      "iso_mass_39": "214.00773",
      "decay_type_39": "B-",
      "iso_half_39": "10 s",
      "iso_Z_39": "81",
      "iso_N_39": "133",
      "iso_A_39": "214",

      "iso_40": "Tl-215",
      "iso_mass_40": "215.01219",
      "decay_type_40": "B-",
      "iso_half_40": "7 s",
      "iso_Z_40": "81",
      "iso_N_40": "134",
      "iso_A_40": "215"
  }
]