[
  {
    "wikilink": "https://en.wikipedia.org/wiki/Thorium",
    "link": "https://upload.wikimedia.org/wikipedia/commons/1/13/Thorium_sample_0.1g.jpg",

    "element": "Thorium",
    "short": "Th",
    "element_year": "1829",
    "element_discovered_name": "Jöns Jakob Berzelius",
    "element_group": "Actinide",
    "element_appearance": "Silvery white",
    "element_electrons": "90",
    "element_protons": "90",
    "element_neutron_common": "142",

    "element_atomic_number": "90",
    "element_atomicmass": "232.0377 (u)",
    "element_density": "11.7 (g/cm^3)",
    "element_electronegativty": "1.3",
    "element_block": "f - block",
    "element_shells_electrons": "K2 L8 M18 N32 O18 P10 Q2 R0",
    "element_model": "https://upload.wikimedia.org/wikipedia/commons/thumb/d/d1/Electron_shell_090_Thorium_-_no_label.svg/800px-Electron_shell_090_Thorium_-_no_label.svg.png",

    "element_boiling_kelvin": "5061 (K)",
    "element_boiling_celsius": "4788 (°C)",
    "element_boiling_fahrenheit": "8650 (°F)",
    "element_melting_kelvin": "2023 (K)",
    "element_melting_celsius": "1750 (°C)",
    "element_melting_fahrenheit": "3182 (°F)",

    "element_electron_config": "6d^2, 7s^2",
    "element_ion_charge": "Th^4+",
    "element_ionization_energy": "6.3067 (eV)",
    "element_atomic_radius_e": "180 (pm)",
    "element_atomic_radius": "--- (pm)",
    "element_covalent_radius": "---",
    "element_van_der_waals": "--- (pm)",

    "element_phase": "Solid",
    "element_fusion_heat": "13.81 (kJ/mol)",
    "element_specific_heat_capacity": "0.113 J/(g·K)",
    "element_vaporization_heat": "514 (kJ/mol)",

    "oxidation_state_neg": "",
    "oxidation_state_pos": "1 2 3 4",

    "iso_1": "Th-224",
    "iso_mass_1": "224.021467",
    "iso_half_1": "1.05 (s)",
    "iso_Z_1": "90",
    "iso_N_1": "134",
    "iso_A_1": "224",

    "iso_2": "Th-225",
    "iso_mass_2": "225.023951",
    "iso_half_2": "8.72 (min)",
    "iso_Z_2": "90",
    "iso_N_2": "135",
    "iso_A_2": "225",

    "iso_3": "Th-226",
    "iso_mass_3": "226.024903",
    "iso_half_3": "30.57 (min)",
    "iso_Z_3": "90",
    "iso_N_3": "136",
    "iso_A_3": "226",

    "iso_4": "Th-227",
    "iso_mass_4": "227.0277041",
    "iso_half_4": "18.68 (days)",
    "iso_Z_4": "90",
    "iso_N_4": "137",
    "iso_A_4": "227",

    "iso_5": "Th-228",
    "iso_mass_5": "228.0287411",
    "iso_half_5": "1.9116 (years)",
    "iso_Z_5": "90",
    "iso_N_5": "138",
    "iso_A_5": "228",

    "iso_6": "Th-229",
    "iso_mass_6": "229.031762",
    "iso_half_6": "7.34×10^3 (years)",
    "iso_Z_6": "90",
    "iso_N_6": "139",
    "iso_A_6": "229",

    "iso_7": "Th-230",
    "iso_mass_7": "230.0331338",
    "iso_half_7": "7.538×10^4 (years)",
    "iso_Z_7": "90",
    "iso_N_7": "140",
    "iso_A_7": "230",

    "iso_8": "Th-231",
    "iso_mass_8": "231.0363043",
    "iso_half_8": "25.52 (hours)",
    "iso_Z_8": "90",
    "iso_N_8": "141",
    "iso_A_8": "231",

    "iso_9": "Th-232",
    "iso_mass_9": "232.0380553",
    "iso_half_9": "1.405×10^10 (years)",
    "iso_Z_9": "90",
    "iso_N_9": "142",
    "iso_A_9": "232",

    "iso_10": "Th-233",
    "iso_mass_10": "233.0415818",
    "iso_half_10": "21.83 (min)",
    "iso_Z_10": "90",
    "iso_N_10": "143",
    "iso_A_10": "233",

    "iso_11": "Th-234",
    "iso_mass_11": "234.043601",
    "iso_half_11": "24.10 (days)",
    "iso_Z_11": "90",
    "iso_N_11": "144",
    "iso_A_11": "234",

    "iso_12": "Th-235",
    "iso_mass_12": "235.04751",
    "iso_half_12": "7.2 (min)",
    "iso_Z_12": "90",
    "iso_N_12": "145",
    "iso_A_12": "235"
  }
]