[
  {
    "element_code": "AApxttohpRY2SSCghZZ",
    "wikilink": "https://en.wikipedia.org/wiki/Thorium",
    "link": "https://upload.wikimedia.org/wikipedia/commons/1/13/Thorium_sample_0.1g.jpg",
    "description": "Thorium is a weakly radioactive metallic chemical element with the symbol Th and atomic number 90. Thorium is silvery and tarnishes black when it is exposed to air, forming thorium dioxide; it is moderately hard, malleable, and has a high melting point. Thorium is an electropositive actinide whose chemistry is dominated by the +4 oxidation state; it is quite reactive and can ignite in air when finely divided.",
    "element": "Thorium",
    "short": "Th",
    "element_year": "1829",
    "element_discovered_name": "Jöns Jakob Berzelius",
    "element_group": "Actinide",
    "element_appearance": "Silvery white",
    "element_electrons": "90",
    "element_protons": "90",
    "element_neutron_common": "142",
    "radioactive": "Yes",
    "neutron_cross_sectional": "7.37 (b)",
    "electrical_type": "Conductor",
    "resistivity": "147 nΩm",
    "resistivity_mult": "0.0000001",
    "magnetic_type": "Paramagnetic",
    "superconducting_point": "1.38",
    "element_atomic_number": "90",
    "element_atomicmass": "232.0377 (u)",
    "element_density": "11.7 (g/cm^3)",
    "element_electronegativty": "1.3",
    "element_block": "f - block",
    "element_shells_electrons": "K2 L8 M18 N32 O18 P10 Q2 R0",
    "element_model": "https://upload.wikimedia.org/wikipedia/commons/thumb/d/d1/Electron_shell_090_Thorium_-_no_label.svg/800px-Electron_shell_090_Thorium_-_no_label.svg.png",
    "element_boiling_kelvin": "5061 (K)",
    "element_boiling_celsius": "4788 (°C)",
    "element_boiling_fahrenheit": "8650 (°F)",
    "element_melting_kelvin": "2023 (K)",
    "element_melting_celsius": "1750 (°C)",
    "element_melting_fahrenheit": "3182 (°F)",
    "element_electron_config": "6d^2, 7s^2",
    "element_ion_charge": "Th^4+",
    "element_ionization_energy1": "6.3067 (eV)",
    "element_ionization_energy2": "11.5 (eV)",
    "element_ionization_energy3": "20.0 (eV)",
    "element_ionization_energy4": "28.8 (eV)",
    "element_atomic_radius_e": "180 (pm)",
    "element_atomic_radius": "--- (pm)",
    "element_covalent_radius": "---",
    "element_van_der_waals": "--- (pm)",
    "element_phase": "Solid",
    "element_fusion_heat": "13.81 (kJ/mol)",
    "element_specific_heat_capacity": "0.113 J/(g·K)",
    "element_vaporization_heat": "514 (kJ/mol)",
    "oxidation_state_neg": "",
    "oxidation_state_pos": "1 2 3 4",
    "speed_of_sound_gas": "---",
    "speed_of_sound_liquid": "---",
    "speed_of_sound_solid": "2490 (m/s) [20°C]",
    "mohs_hardness": "3.0",
    "vickers_hardness": "294-687 (MPa)",
    "brinell_hardness": "390-1500 (MPa)",
    "young_modulus": "79 (GPa)",
    "poisson_ratio": "0.27",
    "bulk_modulus": "54 (GPa)",
    "shear_modulus": "31 (GPa)",
    "sea_water": "0.0015",
    "crustal_rocks": "5.8",
    "sun": "0.05",
    "solar_system": "0.045",
    "cas_number": "7440-29-1",
    "eg_number": "231-139-7",
    "iso_1": "Thorium-207",
    "iso_mass_1": "207",
    "decay_type_1": "α",
    "iso_half_1": "9.7 milliseconds",
    "iso_Z_1": "90",
    "iso_N_1": "117",
    "iso_A_1": "207",
    "iso_2": "Thorium-208",
    "iso_mass_2": "208",
    "decay_type_2": "α",
    "iso_half_2": "1.7 milliseconds",
    "iso_Z_2": "90",
    "iso_N_2": "118",
    "iso_A_2": "208",
    "iso_3": "Thorium-209",
    "iso_mass_3": "209",
    "decay_type_3": "α",
    "iso_half_3": "7 milliseconds",
    "iso_Z_3": "90",
    "iso_N_3": "119",
    "iso_A_3": "209",
    "iso_4": "Thorium-210",
    "iso_mass_4": "210",
    "decay_type_4": "α",
    "iso_half_4": "17 milliseconds",
    "iso_Z_4": "90",
    "iso_N_4": "120",
    "iso_A_4": "210",
    "iso_5": "Thorium-211",
    "iso_mass_5": "211",
    "decay_type_5": "α",
    "iso_half_5": "48 milliseconds",
    "iso_Z_5": "90",
    "iso_N_5": "121",
    "iso_A_5": "211",
    "iso_6": "Thorium-212",
    "iso_mass_6": "212",
    "decay_type_6": "α",
    "iso_half_6": "36 milliseconds",
    "iso_Z_6": "90",
    "iso_N_6": "122",
    "iso_A_6": "212",
    "iso_7": "Thorium-213",
    "iso_mass_7": "213",
    "decay_type_7": "α",
    "iso_half_7": "140 milliseconds",
    "iso_Z_7": "90",
    "iso_N_7": "123",
    "iso_A_7": "213",
    "iso_8": "Thorium-214",
    "iso_mass_8": "214",
    "decay_type_8": "α",
    "iso_half_8": "100 milliseconds",
    "iso_Z_8": "90",
    "iso_N_8": "124",
    "iso_A_8": "214",
    "iso_9": "Thorium-215",
    "iso_mass_9": "215",
    "decay_type_9": "α",
    "iso_half_9": "1.2 seconds",
    "iso_Z_9": "90",
    "iso_N_9": "125",
    "iso_A_9": "215",
    "iso_10": "Thorium-216",
    "iso_mass_10": "216",
    "decay_type_10": "α",
    "iso_half_10": "26.8 milliseconds",
    "iso_Z_10": "90",
    "iso_N_10": "126",
    "iso_A_10": "216",
    "iso_11": "Thorium-217",
    "iso_mass_11": "217",
    "decay_type_11": "α",
    "iso_half_11": "240 microseconds",
    "iso_Z_11": "90",
    "iso_N_11": "127",
    "iso_A_11": "217",
    "iso_12": "Thorium-218",
    "iso_mass_12": "218",
    "decay_type_12": "α",
    "iso_half_12": "109 nanoseconds",
    "iso_Z_12": "90",
    "iso_N_12": "128",
    "iso_A_12": "218",
    "iso_13": "Thorium-219",
    "iso_mass_13": "219",
    "decay_type_13": "α",
    "iso_half_13": "1.05 microseconds",
    "iso_Z_13": "90",
    "iso_N_13": "129",
    "iso_A_13": "219",
    "iso_14": "Thorium-220",
    "iso_mass_14": "220",
    "decay_type_14": "α",
    "iso_half_14": "9.7 microseconds",
    "iso_Z_14": "90",
    "iso_N_14": "130",
    "iso_A_14": "220",
    "iso_15": "Thorium-221",
    "iso_mass_15": "221",
    "decay_type_15": "α",
    "iso_half_15": "1.8 milliseconds",
    "iso_Z_15": "90",
    "iso_N_15": "131",
    "iso_A_15": "221",
    "iso_16": "Thorium-222",
    "iso_mass_16": "222",
    "decay_type_16": "α",
    "iso_half_16": "2.2 milliseconds",
    "iso_Z_16": "90",
    "iso_N_16": "132",
    "iso_A_16": "222",
    "iso_17": "Thorium-223",
    "iso_mass_17": "223",
    "decay_type_17": "α",
    "iso_half_17": "0.6 milliseconds",
    "iso_Z_17": "90",
    "iso_N_17": "133",
    "iso_A_17": "223",
    "iso_18": "Thorium-224",
    "iso_mass_18": "224",
    "decay_type_18": "α",
    "iso_half_18": "0.9 milliseconds",
    "iso_Z_18": "90",
    "iso_N_18": "134",
    "iso_A_18": "224",
    "iso_19": "Thorium-225",
    "iso_mass_19": "225",
    "decay_type_19": "α",
    "iso_half_19": "8.72 minutes",
    "iso_Z_19": "90",
    "iso_N_19": "135",
    "iso_A_19": "225",
    "iso_20": "Thorium-226",
    "iso_mass_20": "226",
    "decay_type_20": "α",
    "iso_half_20": "30.57 minutes",
    "iso_Z_20": "90",
    "iso_N_20": "136",
    "iso_A_20": "226",
    "iso_21": "Thorium-227",
    "iso_mass_21": "227",
    "decay_type_21": "α",
    "iso_half_21": "18.68 days",
    "iso_Z_21": "90",
    "iso_N_21": "137",
    "iso_A_21": "227",
    "iso_22": "Thorium-228",
    "iso_mass_22": "228",
    "decay_type_22": "α",
    "iso_half_22": "1.9116 years",
    "iso_Z_22": "90",
    "iso_N_22": "138",
    "iso_A_22": "228",
    "iso_23": "Thorium-229",
    "iso_mass_23": "229",
    "decay_type_23": "α",
    "iso_half_23": "7917 years",
    "iso_Z_23": "90",
    "iso_N_23": "139",
    "iso_A_23": "229",
    "iso_24": "Thorium-230",
    "iso_mass_24": "230",
    "decay_type_24": "α",
    "iso_half_24": "75380 years",
    "iso_Z_24": "90",
    "iso_N_24": "140",
    "iso_A_24": "230",
    "iso_25": "Thorium-231",
    "iso_mass_25": "231",
    "decay_type_25": "B-",
    "iso_half_25": "25.5 hours",
    "iso_Z_25": "90",
    "iso_N_25": "141",
    "iso_A_25": "231",
    "iso_26": "Thorium-232",
    "iso_mass_26": "232",
    "decay_type_26": "α",
    "iso_half_26": "1.405×10^10 years",
    "iso_Z_26": "90",
    "iso_N_26": "142",
    "iso_A_26": "232",
    "iso_27": "Thorium-233",
    "iso_mass_27": "233",
    "decay_type_27": "B-",
    "iso_half_27": "22.3 minutes",
    "iso_Z_27": "90",
    "iso_N_27": "143",
    "iso_A_27": "233",
    "iso_28": "Thorium-234",
    "iso_mass_28": "234",
    "decay_type_28": "B-",
    "iso_half_28": "24.10 days",
    "iso_Z_28": "90",
    "iso_N_28": "144",
    "iso_A_28": "234",
    "iso_29": "Thorium-235",
    "iso_mass_29": "235",
    "decay_type_29": "B-",
    "iso_half_29": "7.2 minutes",
    "iso_Z_29": "90",
    "iso_N_29": "145",
    "iso_A_29": "235",
    "iso_30": "Thorium-236",
    "iso_mass_30": "236",
    "decay_type_30": "B-",
    "iso_half_30": "11.0 minutes",
    "iso_Z_30": "90",
    "iso_N_30": "146",
    "iso_A_30": "236",
    "iso_31": "Thorium-237",
    "iso_mass_31": "237",
    "decay_type_31": "B-",
    "iso_half_31": "4.8 minutes",
    "iso_Z_31": "90",
    "iso_N_31": "147",
    "iso_A_31": "237",
    "iso_32": "Thorium-238",
    "iso_mass_32": "238",
    "decay_type_32": "B-",
    "iso_half_32": "9.0 minutes",
    "iso_Z_32": "90",
    "iso_N_32": "148",
    "iso_A_32": "238",
    "iso_33": "Thorium-239",
    "iso_mass_33": "239",
    "decay_type_33": "B-",
    "iso_half_33": "1.6 minutes",
    "iso_Z_33": "90",
    "iso_N_33": "149",
    "iso_A_33": "239",
    "iso_34": "Thorium-240",
    "iso_mass_34": "240",
    "decay_type_34": "B-",
    "iso_half_34": "6.3 minutes",
    "iso_Z_34": "90",
    "iso_N_34": "150",
    "iso_A_34": "240",
    "crystal_structure": "Face-centered cubic (fcc)",
    "lattice_constants": {
      "a": "5.084 Å"
    },
    "debye_temperature": {
      "low_temperature_limit": "163 K",
      "room_temperature": "150 K"
    }
  }
]