[
  {
"element_code": "AAo5dsob5VewbP2sMZZ",
    "wikilink": "https://en.wikipedia.org/wiki/Thulium",
    "link": "https://upload.wikimedia.org/wikipedia/commons/thumb/1/1e/Thulium_sublimed_dendritic_and_1cm3_cube.jpg/800px-Thulium_sublimed_dendritic_and_1cm3_cube.jpg",
    "description": "Thulium is a chemical element with the symbol Tm and atomic number 69. It is the thirteenth and third-last element in the lanthanide series. Like the other lanthanides, the most common oxidation state is +3, seen in its oxide, halides and other compounds; because it occurs so late in the series, however, the +2 oxidation state is also stabilized by the nearly full 4f shell that results. In aqueous solution, like compounds of other late lanthanides, soluble thulium compounds form coordination complexes with nine water molecules.",

    "element": "Thulium",
    "short": "Tm",
    "element_year": "1879",
    "element_discovered_name": "Per Teodor Cleve",
    "element_group": "Lanthanoids",
    "element_appearance": "Silvery Gray",
    "element_electrons": "69",
    "element_protons": "69",
    "element_neutron_common": "100",

    "radioactive": "No",
    "neutron_cross_sectional": "100 (b)",

    "electrical_type": "Conductor",
    "resistivity": "7",
    "resistivity_mult": "0.0000001",
    "magnetic_type": "Paramagnetic",
    "superconducting_point": "---",

    "element_atomic_number": "69",
    "element_atomicmass": "168.934 (u)",
    "element_density": "9.32 (g/cm^3)",
    "element_electronegativty": "1.25",
    "element_block": "f - block",
    "element_shells_electrons": "K2 L8 M18 N31 O8 P2 Q0 R0",
    "element_model": "https://upload.wikimedia.org/wikipedia/commons/thumb/8/8c/Electron_shell_069_Thulium_-_no_label.svg/800px-Electron_shell_069_Thulium_-_no_label.svg.png",

    "element_boiling_kelvin": "2223 (K)",
    "element_boiling_celsius": "1950 (°C)",
    "element_boiling_fahrenheit": "3542 (°F)",
    "element_melting_kelvin": "1818 (K)",
    "element_melting_celsius": "1545 (°C)",
    "element_melting_fahrenheit": "2813 (°F)",

    "element_electron_config": "4f^13 6s^2",
    "element_ion_charge": "Tm^3+",
    "element_ionization_energy1": "6.18431 (eV)",
    "element_ionization_energy2": "12.05 (eV)",
    "element_ionization_energy3": "23.68 (eV)",
    "element_ionization_energy4": "42.7 (eV)",
    "element_atomic_radius_e": "175 (pm)",
    "element_atomic_radius": "222 (pm)",
    "element_covalent_radius": "--- (pm)",
    "element_van_der_waals": "---",

    "element_phase": "Solid",
    "element_fusion_heat": "16.84 (kJ/mol)",
    "element_specific_heat_capacity": "0.160 J/(g·K)",
    "element_vaporization_heat": "191 (kJ/mol)",

    "mohs_hardness": "---",
    "vickers_hardness": "470-650 (MPa)",
    "brinell_hardness": "471-900 (MPa)",

    "young_modulus": "74.0 (GPa)",
    "poisson_ratio": "0.213",
    "bulk_modulus": "44.5 (GPa)",
    "shear_modulus": "30.5 (GPa)",

      "iso_1": "Tm-144",
      "iso_mass_1": "143.97628",
      "decay_type_1": "p",
      "iso_half_1": "1.9 μs",
      "iso_Z_1": "69",
      "iso_N_1": "75",
      "iso_A_1": "144",

      "iso_2": "Tm-145",
      "iso_mass_2": "144.97039",
      "decay_type_2": "p",
      "iso_half_2": "3.1 μs",
      "iso_Z_2": "69",
      "iso_N_2": "76",
      "iso_A_2": "145",

      "iso_3": "Tm-146",
      "iso_mass_3": "145.96684",
      "decay_type_3": "p",
      "iso_half_3": "240 ms",
      "iso_Z_3": "69",
      "iso_N_3": "77",
      "iso_A_3": "146",

      "iso_4": "Tm-147",
      "iso_mass_4": "146.96138",
      "decay_type_4": "B+",
      "iso_half_4": "580 ms",
      "iso_Z_4": "69",
      "iso_N_4": "78",
      "iso_A_4": "147",

      "iso_5": "Tm-148",
      "iso_mass_5": "147.95784",
      "decay_type_5": "B+",
      "iso_half_5": "700 ms",
      "iso_Z_5": "69",
      "iso_N_5": "79",
      "iso_A_5": "148",

      "iso_6": "Tm-149",
      "iso_mass_6": "148.95272",
      "decay_type_6": "B+",
      "iso_half_6": "900 ms",
      "iso_Z_6": "69",
      "iso_N_6": "80",
      "iso_A_6": "149",

      "iso_7": "Tm-150",
      "iso_mass_7": "149.94996",
      "decay_type_7": "B+",
      "iso_half_7": "3 s",
      "iso_Z_7": "69",
      "iso_N_7": "81",
      "iso_A_7": "150",

      "iso_8": "Tm-151",
      "iso_mass_8": "150.94548",
      "decay_type_8": "B+",
      "iso_half_8": "4.17 s",
      "iso_Z_8": "69",
      "iso_N_8": "82",
      "iso_A_8": "151",

      "iso_9": "Tm-152",
      "iso_mass_9": "151.94442",
      "decay_type_9": "B+",
      "iso_half_9": "8 s",
      "iso_Z_9": "69",
      "iso_N_9": "83",
      "iso_A_9": "152",

      "iso_10": "Tm-153",
      "iso_mass_10": "152.94201",
      "decay_type_10": "B+",
      "iso_half_10": "1.48 s",
      "iso_Z_10": "69",
      "iso_N_10": "84",
      "iso_A_10": "153",

      "iso_11": "Tm-154",
      "iso_mass_11": "153.94157",
      "decay_type_11": "B+",
      "iso_half_11": "8.1 s",
      "iso_Z_11": "69",
      "iso_N_11": "85",
      "iso_A_11": "154",

      "iso_12": "Tm-155",
      "iso_mass_12": "154.93920",
      "decay_type_12": "B+",
      "iso_half_12": "21.6 s",
      "iso_Z_12": "69",
      "iso_N_12": "86",
      "iso_A_12": "155",

      "iso_13": "Tm-156",
      "iso_mass_13": "155.93898",
      "decay_type_13": "B+",
      "iso_half_13": "83.8 s",
      "iso_Z_13": "69",
      "iso_N_13": "87",
      "iso_A_13": "156",

      "iso_14": "Tm-157",
      "iso_mass_14": "156.93697",
      "decay_type_14": "B+",
      "iso_half_14": "3.6 min",
      "iso_Z_14": "69",
      "iso_N_14": "88",
      "iso_A_14": "157",

      "iso_15": "Tm-158",
      "iso_mass_15": "157.93698",
      "decay_type_15": "B+",
      "iso_half_15": "5.98 min",
      "iso_Z_15": "69",
      "iso_N_15": "89",
      "iso_A_15": "158",

      "iso_16": "Tm-159",
      "iso_mass_16": "158.93498",
      "decay_type_16": "B+",
      "iso_half_16": "9.1 min",
      "iso_Z_16": "69",
      "iso_N_16": "90",
      "iso_A_16": "159",

      "iso_17": "Tm-160",
      "iso_mass_17": "159.93553",
      "decay_type_17": "B+",
      "iso_half_17": "9.4 min",
      "iso_Z_17": "69",
      "iso_N_17": "91",
      "iso_A_17": "160",

      "iso_18": "Tm-161",
      "iso_mass_18": "160.93355",
      "decay_type_18": "B+",
      "iso_half_18": "30.2 min",
      "iso_Z_18": "69",
      "iso_N_18": "92",
      "iso_A_18": "161",

      "iso_19": "Tm-162",
      "iso_mass_19": "161.93399",
      "decay_type_19": "B+",
      "iso_half_19": "1.31 h",
      "iso_Z_19": "69",
      "iso_N_19": "93",
      "iso_A_19": "162",

      "iso_20": "Tm-163",
      "iso_mass_20": "162.93265",
      "decay_type_20": "B+",
      "iso_half_20": "3.7 min",
      "iso_Z_20": "69",
      "iso_N_20": "94",
      "iso_A_20": "163",

      "iso_21": "Tm-164",
      "iso_mass_21": "163.93356",
      "decay_type_21": "B+",
      "iso_half_21": "7.7 min",
      "iso_Z_21": "69",
      "iso_N_21": "95",
      "iso_A_21": "164",

      "iso_22": "Tm-165",
      "iso_mass_22": "164.93244",
      "decay_type_22": "B+",
      "iso_half_22": "30.06 h",
      "iso_Z_22": "69",
      "iso_N_22": "96",
      "iso_A_22": "165",

      "iso_23": "Tm-166",
      "iso_mass_23": "165.93355",
      "decay_type_23": "B-",
      "iso_half_23": "7.7 h",
      "iso_Z_23": "69",
      "iso_N_23": "97",
      "iso_A_23": "166",

      "iso_24": "Tm-167",
      "iso_mass_24": "166.93295",
      "decay_type_24": "B-",
      "iso_half_24": "9.25 d",
      "iso_Z_24": "69",
      "iso_N_24": "98",
      "iso_A_24": "167",

      "iso_25": "Tm-168",
      "iso_mass_25": "167.93417",
      "decay_type_25": "B+",
      "iso_half_25": "93.1 d",
      "iso_Z_25": "69",
      "iso_N_25": "99",
      "iso_A_25": "168",

      "iso_26": "Tm-169",
      "iso_mass_26": "168.93421",
      "decay_type_26": "stable",
      "iso_half_26": "stable",
      "iso_Z_26": "69",
      "iso_N_26": "100",
      "iso_A_26": "169",

      "iso_27": "Tm-170",
      "iso_mass_27": "169.93580",
      "decay_type_27": "B-",
      "iso_half_27": "128.6 d",
      "iso_Z_27": "69",
      "iso_N_27": "101",
      "iso_A_27": "170",

      "iso_28": "Tm-171",
      "iso_mass_28": "170.93643",
      "decay_type_28": "B-",
      "iso_half_28": "1.92 y",
      "iso_Z_28": "69",
      "iso_N_28": "102",
      "iso_A_28": "171",

      "iso_29": "Tm-172",
      "iso_mass_29": "171.93840",
      "decay_type_29": "B-",
      "iso_half_29": "63.6 h",
      "iso_Z_29": "69",
      "iso_N_29": "103",
      "iso_A_29": "172",

      "iso_30": "Tm-173",
      "iso_mass_30": "172.93960",
      "decay_type_30": "B-",
      "iso_half_30": "8.24 h",
      "iso_Z_30": "69",
      "iso_N_30": "104",
      "iso_A_30": "173",

      "iso_31": "Tm-174",
      "iso_mass_31": "173.94217",
      "decay_type_31": "B-",
      "iso_half_31": "5.1 min",
      "iso_Z_31": "69",
      "iso_N_31": "105",
      "iso_A_31": "174",

      "iso_32": "Tm-175",
      "iso_mass_32": "174.94384",
      "decay_type_32": "B-",
      "iso_half_32": "15.2 min",
      "iso_Z_32": "69",
      "iso_N_32": "106",
      "iso_A_32": "175",

      "iso_33": "Tm-176",
      "iso_mass_33": "175.94699",
      "decay_type_33": "B-",
      "iso_half_33": "1.5 min",
      "iso_Z_33": "69",
      "iso_N_33": "107",
      "iso_A_33": "176",

      "iso_34": "Tm-177",
      "iso_mass_34": "176.94904",
      "decay_type_34": "B-",
      "iso_half_34": "54 s",
      "iso_Z_34": "69",
      "iso_N_34": "108",
      "iso_A_34": "177",

      "iso_35": "Tm-178",
      "iso_mass_35": "177.95264",
      "decay_type_35": "B-",
      "iso_half_35": "21 s",
      "iso_Z_35": "69",
      "iso_N_35": "109",
      "iso_A_35": "178",

      "iso_36": "Tm-179",
      "iso_mass_36": "178.95534",
      "decay_type_36": "B-",
      "iso_half_36": "9 s",
      "iso_Z_36": "69",
      "iso_N_36": "110",
      "iso_A_36": "179"
  }
]