[
  {
"element_code": "AAhCREPWtZzX9etQdZZ",
    "wikilink": "https://en.wikipedia.org/wiki/Tin",
    "link": "https://upload.wikimedia.org/wikipedia/commons/thumb/2/2b/Sn-Alpha-Beta.jpg/1024px-Sn-Alpha-Beta.jpg",
    "description": "Tin is a chemical element with the symbol Sn (from Latin: stannum) and atomic number 50. Tin is a silvery metal that characteristically has a faint yellow hue. Tin, like indium, is soft enough to be cut without much force. When a bar of tin is bent, the so-called “tin cry” can be heard as a result of sliding tin crystals reforming; this trait is shared by indium, cadmium, and frozen mercury.",

    "element": "Tin",
    "short": "Sn",
    "element_year": "Deep Antiquity",
    "element_discovered_name": "---",
    "element_group": "Post-Transition Metals",
    "element_appearance": "Silvery White or Gray",
    "element_electrons": "50",
    "element_protons": "50",
    "element_neutron_common": "70",

    "radioactive": "No",
    "neutron_cross_sectional": "0.626 (b)",

    "electrical_type": "Conductor",
    "resistivity": "1.1",
    "resistivity_mult": "0.0000001",
    "magnetic_type": "Diamagnetic",
    "superconducting_point": "3.72",

    "element_atomic_number": "50",
    "element_atomicmass": "118.710 (u)",
    "element_density": "7.265 (g/cm^3)",
    "element_electronegativty": "1.96",
    "element_block": "p - block",
    "element_shells_electrons": "K2 L8 18 N18 O4 P0 Q0 R0",
    "element_model": "https://upload.wikimedia.org/wikipedia/commons/thumb/1/13/Electron_shell_050_Tin_-_no_label.svg/800px-Electron_shell_050_Tin_-_no_label.svg.png",

    "element_boiling_kelvin": "2875 (K)",
    "element_boiling_celsius": "2602 (°C)",
    "element_boiling_fahrenheit": "4716 (°F)",
    "element_melting_kelvin": "505.08 (K)",
    "element_melting_celsius": "231.93 (°C)",
    "element_melting_fahrenheit": "449.47 (°F)",

    "element_electron_config": "4d^10 5s^2 5p^2",
    "element_ion_charge": "Sn^4+, Sn^2+",
    "element_ionization_energy1": "7.3439 (eV)",
    "element_ionization_energy2": "14.63225 (eV)",
    "element_ionization_energy3": "30.50260 (eV)",
    "element_ionization_energy4": "40.73502 (eV)",
    "element_ionization_energy5": "72.28 (eV)",
    "element_atomic_radius_e": "145 (pm)",
    "element_atomic_radius": "145 (pm)",
    "element_covalent_radius": "141 (pm)",
    "element_van_der_waals": "217",

    "element_phase": "Solid",
    "element_fusion_heat": "7.173 (kJ/mol)",
    "element_specific_heat_capacity": "0.228 J/(g·K)",
    "element_vaporization_heat": "296.1 (kJ/mol)",

    "oxidation_state_neg": "4 3 2 1 0",
    "oxidation_state_pos": "1 2 3 4",

    "speed_of_sound_gas": "---",
    "speed_of_sound_liquid": "---",
    "speed_of_sound_solid": "2730 (m/s) [room temperature, rolled]",

    "mohs_hardness": "1.5",
    "vickers_hardness": "---",
    "brinell_hardness": "51-75 (MPa)",

    "young_modulus": "50 (GPa)",
    "poisson_ratio": "0.36",
    "bulk_modulus": "58 (GPa)",
    "shear_modulus": "18 (GPa)",

    "earth_crust": "2.5",
    "earth_soils": "10.0",
    "urban_soils": "6.8",
    "sea_water": "0.81",
    "crustal_rocks": "1.5",
    "sun": "3",
    "solar_system": "3.9",

      "iso_1": "Sn-99",
      "iso_mass_1": "98.94850",
      "iso_half_1": "24 (ms)",
      "decay_type_1": "B+",
      "iso_Z_1": "50",
      "iso_N_1": "49",
      "iso_A_1": "99",

      "iso_2": "Sn-100",
      "iso_mass_2": "99.93865",
      "iso_half_2": "1.18 (s)",
      "decay_type_2": "B+",
      "iso_Z_2": "50",
      "iso_N_2": "50",
      "iso_A_2": "100",

      "iso_3": "Sn-101",
      "iso_mass_3": "100.93526",
      "iso_half_3": "2.22 (s)",
      "decay_type_3": "B+",
      "iso_Z_3": "50",
      "iso_N_3": "51",
      "iso_A_3": "101",

      "iso_4": "Sn-102",
      "iso_mass_4": "101.93029",
      "iso_half_4": "3.8 (s)",
      "decay_type_4": "B+",
      "iso_Z_4": "50",
      "iso_N_4": "52",
      "iso_A_4": "102",

      "iso_5": "Sn-103",
      "iso_mass_5": "102.92797",
      "iso_half_5": "7.0 (s)",
      "decay_type_5": "B+",
      "iso_Z_5": "50",
      "iso_N_5": "53",
      "iso_A_5": "103",

      "iso_6": "Sn-104",
      "iso_mass_6": "103.923105",
      "iso_half_6": "20.8 (s)",
      "decay_type_6": "B+",
      "iso_Z_6": "50",
      "iso_N_6": "54",
      "iso_A_6": "104",

      "iso_7": "Sn-105",
      "iso_mass_7": "104.921268",
      "iso_half_7": "32.7 (s)",
      "decay_type_7": "B+",
      "iso_Z_7": "50",
      "iso_N_7": "55",
      "iso_A_7": "105",

      "iso_8": "Sn-106",
      "iso_mass_8": "105.916957",
      "iso_half_8": "1.92 (min)",
      "decay_type_8": "B+",
      "iso_Z_8": "50",
      "iso_N_8": "56",
      "iso_A_8": "106",

      "iso_9": "Sn-107",
      "iso_mass_9": "106.915714",
      "iso_half_9": "2.90 (min)",
      "decay_type_9": "B+",
      "iso_Z_9": "50",
      "iso_N_9": "57",
      "iso_A_9": "107",

      "iso_10": "Sn-108",
      "iso_mass_10": "107.911894",
      "iso_half_10": "10.30 (min)",
      "decay_type_10": "B+",
      "iso_Z_10": "50",
      "iso_N_10": "58",
      "iso_A_10": "108",

      "iso_11": "Sn-109",
      "iso_mass_11": "108.911293",
      "iso_half_11": "18.1 (min)",
      "decay_type_11": "B+",
      "iso_Z_11": "50",
      "iso_N_11": "59",
      "iso_A_11": "109",

      "iso_12": "Sn-110",
      "iso_mass_12": "109.907845",
      "iso_half_12": "4.154 (h)",
      "decay_type_12": "EC",
      "iso_Z_12": "50",
      "iso_N_12": "60",
      "iso_A_12": "110",

      "iso_13": "Sn-111",
      "iso_mass_13": "110.907741",
      "iso_half_13": "35.3 (min)",
      "decay_type_13": "B+",
      "iso_Z_13": "50",
      "iso_N_13": "61",
      "iso_A_13": "111",

      "iso_14": "Sn-112",
      "iso_mass_14": "111.9048249",
      "iso_half_14": "Observationally Stable",
      "decay_type_14": "observationally stable",
      "iso_Z_14": "50",
      "iso_N_14": "62",
      "iso_A_14": "112",

      "iso_15": "Sn-113",
    "iso_mass_15": "112.905171",
    "iso_half_15": "115.09 (days)",
      "decay_type_15": "B+",
    "iso_Z_15": "50",
    "iso_N_15": "63",
    "iso_A_15": "113",

    "iso_16": "Sn-114",
    "iso_mass_16": "113.902779",
    "iso_half_16": "Stable",
      "decay_type_16": "stable",
      "iso_Z_16": "50",
    "iso_N_16": "64",
    "iso_A_16": "114",

    "iso_17": "Sn-115",
    "iso_mass_17": "114.903342",
    "iso_half_17": "Stable",
    "decay_type_17": "stable",
    "iso_Z_17": "50",
    "iso_N_17": "65",
    "iso_A_17": "115",

    "iso_18": "Sn-116",
    "iso_mass_18": "115.901741",
    "iso_half_18": "Stable",
    "decay_type_18": "stable",
    "iso_Z_18": "50",
    "iso_N_18": "66",
    "iso_A_18": "116",

    "iso_19": "Sn-117",
    "iso_mass_19": "116.902952",
    "decay_type_19": "stable",
    "iso_half_19": "Stable",
    "iso_Z_19": "50",
    "iso_N_19": "67",
    "iso_A_19": "117",

    "iso_20": "Sn-118",
    "iso_mass_20": "117.901603",
    "iso_half_20": "Stable",
    "decay_type_20": "stable",
    "iso_Z_20": "50",
    "iso_N_20": "68",
    "iso_A_20": "118",

    "iso_21": "Sn-119",
    "iso_mass_21": "118.903308",
    "iso_half_21": "Stable",
    "decay_type_21": "stable",
    "iso_Z_21": "50",
    "iso_N_21": "69",
    "iso_A_21": "119",

    "iso_22": "Sn-120",
    "iso_mass_22": "119.9021947",
    "iso_half_22": "Stable",
    "decay_type_22": "stable",
    "iso_Z_22": "50",
    "iso_N_22": "70",
    "iso_A_22": "120",

    "iso_23": "Sn-121",
    "iso_mass_23": "120.9042355",
    "iso_half_23": "27.03 (hours)",
    "decay_type_23": "B-",
    "iso_Z_23": "50",
    "iso_N_23": "71",
    "iso_A_23": "121",

    "iso_24": "Sn-122",
    "iso_mass_24": "121.9034390",
    "iso_half_24": "Observationally Stable",
    "decay_type_24": "B-",
    "iso_Z_24": "50",
    "iso_N_24": "72",
    "iso_A_24": "122",

    "iso_25": "Sn-123",
    "iso_mass_25": "122.9057208",
    "iso_half_25": "129.2 (days)",
    "decay_type_25": "B-",
    "iso_Z_25": "50",
    "iso_N_25": "73",
    "iso_A_25": "123",

    "iso_26": "Sn-124",
    "iso_mass_26": "123.9052796",
    "iso_half_26": "Observationally Stable",
    "decay_type_26": "observationally stable",
    "iso_Z_26": "50",
    "iso_N_26": "74",
    "iso_A_26": "124",

    "iso_27": "Sn-125",
    "iso_mass_27": "124.9077894",
    "iso_half_27": "9.634 (days)",
    "decay_type_27": "B-",
    "iso_Z_27": "50",
    "iso_N_27": "75",
    "iso_A_27": "125",

    "iso_28": "Sn-126",
    "iso_mass_28": "125.907658",
    "iso_half_28": "2.30×10^5  (years)",
    "decay_type_28": "B-",
    "iso_Z_28": "50",
    "iso_N_28": "76",
    "iso_A_28": "126",
    
    "iso_29": "Sn-127",
    "iso_mass_29": "126.9103917",
    "iso_half_29": "2.10 (hours)",
    "decay_type_29": "B-",
    "iso_Z_29": "50",
    "iso_N_29": "77",
    "iso_A_29": "127",

    "iso_30": "Sn-128",
    "iso_mass_30": "127.910508",
    "iso_half_30": "59.07 (min)",
    "decay_type_30": "B-",
    "iso_Z_30": "50",
    "iso_N_30": "78",
    "iso_A_30": "128",

    "iso_31": "Sn-129",
    "iso_mass_31": "128.913482",
    "iso_half_31": "2.23 (min)",
    "decay_type_31": "B-",
    "iso_Z_31": "50",
    "iso_N_31": "79",
    "iso_A_31": "129",

    "iso_32": "Sn-130",
    "iso_mass_32": "129.9139745",
    "iso_half_32": "3.72 (min)",
    "decay_type_32": "B-",
    "iso_Z_32": "50",
    "iso_N_32": "80",
    "iso_A_32": "130",

    "iso_33": "Sn-131",
    "iso_mass_33": "130.917053",
    "iso_half_33": "56.0 (s)",
    "decay_type_33": "B-",
    "iso_Z_33": "50",
    "iso_N_33": "81",
    "iso_A_33": "131",

    "iso_34": "Sn-132",
    "iso_mass_34": "131.9178239",
    "iso_half_34": "39.7 (s)",
    "decay_type_34": "B-",
    "iso_Z_34": "50",
    "iso_N_34": "82",
    "iso_A_34": "132",

    "iso_35": "Sn-133",
    "iso_mass_35": "132.9239138",
    "iso_half_35": "1.37 (s)",
    "decay_type_35": "B-",
    "iso_Z_35": "50",
    "iso_N_35": "83",
    "iso_A_35": "133",

    "iso_36": "Sn-134",
    "iso_mass_36": "133.928680",
    "iso_half_36": "0.93 (s)",
    "decay_type_36": "B-",
    "iso_Z_36": "50",
    "iso_N_36": "84",
    "iso_A_36": "134",

    "iso_37": "Sn-135",
    "iso_mass_37": "134.934909",
    "iso_half_37": "515 (ms)",
    "decay_type_37": "B-",
    "iso_Z_37": "50",
    "iso_N_37": "85",
    "iso_A_37": "135",

    "iso_38": "Sn-136",
    "iso_mass_38": "135.93970",
    "iso_half_38": "355 (ms)",
    "decay_type_38": "B-",
    "iso_Z_38": "50",
    "iso_N_38": "86",
    "iso_A_38": "136",

    "iso_39": "Sn-137",
    "iso_mass_39": "136.94616",
    "iso_half_39": "249 (ms)",
    "decay_type_39": "B-",
    "iso_Z_39": "50",
    "iso_N_39": "87",
    "iso_A_39": "137",

    "iso_40": "Sn-138",
    "iso_mass_40": "137.95114",
    "iso_half_40": "148 (ms)",
    "decay_type_40": "B-",
    "iso_Z_40": "50",
    "iso_N_40": "88",
    "iso_A_40": "138",

    "iso_41": "Sn-139",
    "iso_mass_41": "138.95780",
    "iso_half_41": "120 (ms)",
    "decay_type_41": "B-",
    "iso_Z_41": "50",
    "iso_N_41": "89",
    "iso_A_41": "139",

    "iso_42": "Sn-140",
    "iso_mass_42": "139.96297",
    "iso_half_42": "50 (ms)",
    "decay_type_42": "B-",
    "iso_Z_42": "50",
    "iso_N_42": "90",
    "iso_A_42": "140"
  }
]