[
  {
"element_code": "AAg79HFaHAKPfZSqDZZ",
    "wikilink": "https://en.wikipedia.org/wiki/Titanium",
    "link": "https://upload.wikimedia.org/wikipedia/commons/thumb/d/db/Titan-crystal_bar.JPG/1024px-Titan-crystal_bar.JPG",
    "description": "Titanium is a chemical element with the symbol Ti and atomic number 22. It is a lustrous transition metal with a silver color, low density, and high strength. Titanium is resistant to corrosion in sea water, aqua regia, and chlorine.",

    "element": "Titanium",
    "short": "Ti",
    "element_year": "1791",
    "element_discovered_name": "William Gregor",
    "element_group": "Transition Metals",
    "element_appearance": "Silvery White-white Metallic",
    "element_electrons": "22",
    "element_protons": "22",
    "element_neutron_common": "26",

    "radioactive": "No",
    "neutron_cross_sectional": "6.09 (b)",

    "electrical_type": "Conductor",
    "resistivity": "4",
    "resistivity_mult": "0.0000001",
    "magnetic_type": "Paramagnetic",
    "superconducting_point": "0.4",

    "element_atomic_number": "22",
    "element_atomicmass": "47.867 (u)",
    "element_density": "4.506 (g/cm^3)",
    "element_electronegativty": "1.54",
    "element_block": "d - block",
    "element_shells_electrons": "K2 L8 M10 N2 O0 P0 Q0 R0",
    "element_model": "https://upload.wikimedia.org/wikipedia/commons/thumb/0/09/Electron_shell_022_Titanium_-_no_label.svg/800px-Electron_shell_022_Titanium_-_no_label.svg.png",

    "element_boiling_kelvin": "3560 (K)",
    "element_boiling_celsius": "3287 (°C)",
    "element_boiling_fahrenheit": "5949 (°F)",
    "element_melting_kelvin": "1941 (K)",
    "element_melting_celsius": "1668 (°C)",
    "element_melting_fahrenheit": "3034 (°F)",

    "element_electron_config": "3d^2 4s^2",
    "element_ion_charge": "Ti^4+, Ti^3+",
    "element_ionization_energy1": "6.8281 (eV)",
    "element_ionization_energy2": "13.5755 (eV)",
    "element_ionization_energy3": "27.4917 (eV)",
    "element_ionization_energy4": "43.2672 (eV)",
    "element_ionization_energy5": "99.30 (eV)",
    "element_ionization_energy6": "119.53 (eV)",
    "element_ionization_energy7": "140.8 (eV)",
    "element_ionization_energy8": "170.4 (eV)",
    "element_ionization_energy9": "192.1 (eV)",
    "element_ionization_energy10": "215.92 (eV)",
    "element_ionization_energy11": "265.07 (eV)",
    "element_ionization_energy12": "291.500 (eV)",
    "element_ionization_energy13": "787.84 (eV)",
    "element_ionization_energy14": "863.1 (eV)",
    "element_ionization_energy15": "941.9 (eV)",
    "element_ionization_energy16": "1044 (eV)",
    "element_ionization_energy17": "1131 (eV)",
    "element_ionization_energy18": "1221 (eV)",
    "element_ionization_energy19": "1346 (eV)",
    "element_ionization_energy20": "1425.4 (eV)",
    "element_ionization_energy21": "6249.0 (eV)",
    "element_ionization_energy22": "6625.82 (eV)",
    "element_atomic_radius_e": "140 (pm)",
    "element_atomic_radius": "76 (pm)",
    "element_covalent_radius": "136 (pm)",
    "element_van_der_waals": "--- (pm)",

    "element_phase": "Solid",
    "element_fusion_heat": "14.15 (kJ/mol)",
    "element_specific_heat_capacity": "0.523 J/(g·K)",
    "element_vaporization_heat": "425 (kJ/mol)",

    "oxidation_state_neg": "2 1 0",
    "oxidation_state_pos": "1 2 3 4",

    "speed_of_sound_gas": "---",
    "speed_of_sound_liquid": "---",
    "speed_of_sound_solid": "5090 (m/s) [20°C]",

    "mohs_hardness": "6.0",
    "vickers_hardness": "830-3420 (MPa)",
    "brinell_hardness": "716-2770 (MPa)",

    "young_modulus": "116 (GPa)",
    "poisson_ratio": "0.32",
    "bulk_modulus": "110 (GPa)",
    "shear_modulus": "44 (GPa)",

      "earth_crust": "4500",
      "earth_soils": "4600",
      "urban_soils": "4758",
      "sea_water": "1",
      "crustal_rocks": "8.6 × 10^3",
      "sun": "2.7 ×10^3",
      "solar_system": "2.4 × 10^3",

      "cas_number": "7440-32-6",
      "eg_number": "231-142-3",
      "health": 1,
      "flammability": 1,
      "instability": 2,

    "iso_1": "Ti-37",
    "iso_mass_1": "---",
    "iso_half_1": "---",
    "decay_type_1": "p",
    "iso_Z_1": "22",
    "iso_N_1": "15",
    "iso_A_1": "37",

    "iso_2": "Ti-38",
    "iso_mass_2": "38.00977",
    "iso_half_2": "120 (ns)",
    "decay_type_2": "2p",
    "iso_Z_2": "22",
    "iso_N_2": "16",
    "iso_A_2": "38",

    "iso_3": "Ti-39",
    "iso_mass_3": "39.00161",
    "iso_half_3": "31 (ms)",
    "decay_type_3": "B+",
    "iso_Z_3": "22",
    "iso_N_3": "17",
    "iso_A_3": "39",

    "iso_4": "Ti-40",
    "iso_mass_4": "39.99050",
    "iso_half_4": "53.3 (ms)",
    "decay_type_4": "B+",
    "iso_Z_4": "22",
    "iso_N_4": "18",
    "iso_A_4": "40",

    "iso_5": "Ti-41",
    "iso_mass_5": "40.98315",
    "iso_half_5": "80.4 (ms)",
    "decay_type_5": "B+",
    "iso_Z_5": "22",
    "iso_N_5": "19",
    "iso_A_5": "41",

    "iso_6": "Ti-42",
    "iso_mass_6": "41.973031",
    "iso_half_6": "199 (ms)",
    "decay_type_6": "B+",
    "iso_Z_6": "22",
    "iso_N_6": "20",
    "iso_A_6": "42",

    "iso_7": "Ti-43",
    "iso_mass_7": "42.968522",
    "iso_half_7": "509 (ms)",
    "decay_type_7": "B+",
    "iso_Z_7": "22",
    "iso_N_7": "21",
    "iso_A_7": "43",

    "iso_8": "Ti-44",
    "iso_mass_8": "43.9596901",
    "iso_half_8": "60.0 (years)",
    "decay_type_8": "e- capture",
    "iso_Z_8": "22",
    "iso_N_8": "22",
    "iso_A_8": "44",

    "iso_9": "Ti-45",
    "iso_mass_9": "44.9581256",
    "iso_half_9": "184.8 (min)",
    "decay_type_9": "B+",
    "iso_Z_9": "22",
    "iso_N_9": "23",
    "iso_A_9": "45",

    "iso_10": "Ti-46",
    "iso_mass_10": "45.9526316",
    "iso_half_10": "Stable",
    "decay_type_10": "stable",
    "iso_Z_10": "22",
    "iso_N_10": "24",
    "iso_A_10": "46",

    "iso_11": "Ti-47",
    "iso_mass_11": "46.9517631",
    "iso_half_11": "Stable",
    "decay_type_11": "stable",
    "iso_Z_11": "22",
    "iso_N_11": "25",
    "iso_A_11": "47",

    "iso_12": "Ti-48",
    "iso_mass_12": "47.9479463",
    "iso_half_12": "Stable",
    "decay_type_12": "stable",
    "iso_Z_12": "22",
    "iso_N_12": "26",
    "iso_A_12": "48",

    "iso_13": "Ti-49",
    "iso_mass_13": "48.9478700",
    "iso_half_13": "Stable",
    "decay_type_13": "stable",
    "iso_Z_13": "22",
    "iso_N_13": "27",
    "iso_A_13": "49",

    "iso_14": "Ti-50",
    "iso_mass_14": "49.9447912",
    "iso_half_14": "Stable (d)",
    "decay_type_14": "stable",
    "iso_Z_14": "22",
    "iso_N_14": "28",
    "iso_A_14": "50",

    "iso_15": "Ti-51",
    "iso_mass_15": "50.946615",
    "iso_half_15": "5.76 (min)",
    "decay_type_15": "B-",
    "iso_Z_15": "22",
    "iso_N_15": "29",
    "iso_A_15": "51",

    "iso_16": "Ti-52",
    "iso_mass_16": "51.946897",
    "iso_half_16": "1.7 (min)",
    "decay_type_16": "B-",
    "iso_Z_16": "22",
    "iso_N_16": "30",
    "iso_A_16": "52",

    "iso_17": "Ti-53",
    "iso_mass_17": "52.94973",
    "iso_half_17": "32.7 (s)",
    "decay_type_17": "B-",
    "iso_Z_17": "22",
    "iso_N_17": "31",
    "iso_A_17": "53",

    "iso_18": "Ti-54",
    "iso_mass_18": "53.95105",
    "iso_half_18": "1.5 (s)",
    "decay_type_18": "B-",
    "iso_Z_18": "22",
    "iso_N_18": "32",
    "iso_A_18": "54",

    "iso_19": "Ti-55",
    "iso_mass_19": "54.95527",
    "iso_half_19": "490 (ms)",
    "decay_type_19": "B-",
    "iso_Z_19": "22",
    "iso_N_19": "33",
    "iso_A_19": "55",

    "iso_20": "Ti-56",
    "iso_mass_20": "55.95820",
    "iso_half_20": "164 (ms)",
    "decay_type_20": "B-",
    "iso_Z_20": "22",
    "iso_N_20": "34",
    "iso_A_20": "56",

    "iso_21": "Ti-57",
    "iso_mass_21": "56.96399",
    "iso_half_21": "60 (ms)",
    "decay_type_21": "B-",
    "iso_Z_21": "22",
    "iso_N_21": "35",
    "iso_A_21": "57",

    "iso_22": "Ti-58",
    "iso_mass_22": "57.96697",
    "iso_half_22": "54 (ms)",
    "decay_type_22": "B-",
    "iso_Z_22": "22",
    "iso_N_22": "36",
    "iso_A_22": "58",

    "iso_23": "Ti-59",
    "iso_mass_23": "58.97293",
    "iso_half_23": "30 (ms)",
    "decay_type_23": "B-",
    "iso_Z_23": "22",
    "iso_N_23": "37",
    "iso_A_23": "59",

    "iso_24": "Ti-60",
    "iso_mass_24": "59.97676",
    "iso_half_24": "22 (ms)",
    "decay_type_24": "B-",
    "iso_Z_24": "22",
    "iso_N_24": "38",
    "iso_A_24": "60",

    "iso_25": "Ti-61",
    "iso_mass_25": "60.98320",
    "iso_half_25": "10 (ms)",
    "decay_type_25": "B-",
    "iso_Z_25": "22",
    "iso_N_25": "39",
    "iso_A_25": "61",

    "iso_26": "Ti-62",
    "iso_mass_26": "61.98749",
    "iso_half_26": "10 (ms)",
    "decay_type_26": "B-",
    "iso_Z_26": "22",
    "iso_N_26": "40",
    "iso_A_26": "62",

    "iso_27": "Ti-63",
    "iso_mass_27": "62.99442",
    "iso_half_27": "3 (ms)",
    "decay_type_27": "B-",
    "iso_Z_27": "22",
    "iso_N_27": "41",
    "iso_A_27": "63",

    "iso_28": "Ti-64",
    "iso_mass_28": "---",
    "iso_half_28": "---",
    "decay_type_28": "B-",
    "iso_Z_28": "22",
    "iso_N_28": "42",
    "iso_A_28": "64",

    "iso_29": "Ti-65",
    "iso_mass_29": "---",
    "iso_half_29": "---",
    "decay_type_29": "B-",
    "iso_Z_29": "22",
    "iso_N_29": "43",
    "iso_A_29": "65"
  }
]