[
  {
"element_code": "AAsTW2q8zbYqZszxuZZ",
    "wikilink": "https://en.wikipedia.org/wiki/Tungsten",
    "link": "https://upload.wikimedia.org/wikipedia/commons/thumb/1/1a/Wolfram_evaporated_crystals_and_1cm3_cube.jpg/1024px-Wolfram_evaporated_crystals_and_1cm3_cube.jpg",
    "description": "Tungsten, or wolfram,[8][9] is a chemical element with the symbol W and atomic number 74. The name tungsten comes from the former Swedish name for the tungstate mineral scheelite, tungsten which means \"heavy stone\". Tungsten is a rare metal found naturally on Earth almost exclusively combined with other elements in chemical compounds rather than alone. It was identified as a new element in 1781 and first isolated as a metal in 1783. Its important ores include wolframite and scheelite.",

    "element": "Tungsten",
    "short": "W",
    "element_year": "1783",
    "element_discovered_name": "Juan José Elhuyar",
    "element_group": "Transition Metals",
    "element_appearance": "Grayish White",
    "element_electrons": "74",
    "element_protons": "74",
    "element_neutron_common": "110",

    "radioactive": "No",
    "neutron_cross_sectional": "18.3 (b)",

    "electrical_type": "Conductor",
    "resistivity": "5",
    "resistivity_mult": "0.00000001",
    "magnetic_type": "Paramagnetic",
    "superconducting_point": "0.015",

    "element_atomic_number": "74",
    "element_atomicmass": "183.84 (u)",
    "element_density": "19.25   (g/cm^3)",
    "element_electronegativty": "2.36",
    "element_block": "d - block",
    "element_shells_electrons": "K2 L8 M8 N32 O12 P2 Q0 R0",
    "element_model": "https://upload.wikimedia.org/wikipedia/commons/thumb/1/19/Electron_shell_074_Tungsten_-_no_label.svg/800px-Electron_shell_074_Tungsten_-_no_label.svg.png",

    "element_boiling_kelvin": "6203 (K)",
    "element_boiling_celsius": "5930 (°C)",
    "element_boiling_fahrenheit": "10706 (°F)",
    "element_melting_kelvin": "3695 (K)",
    "element_melting_celsius": "3422 (°C)",
    "element_melting_fahrenheit": "6192 (°F)",

    "element_electron_config": "4f^14, 5d^4, 6s^2",
    "element_ion_charge": "W^6+",
    "element_ionization_energy1": "7.8640 (eV)",
    "element_atomic_radius_e": "135 (pm)",
    "element_atomic_radius": "193 (pm)",
    "element_covalent_radius": "146 (pm)",
    "element_van_der_waals": "--- (pm)",

    "element_phase": "Solid",
    "element_fusion_heat": "52.31 (kJ/mol)",
    "element_specific_heat_capacity": "0.132 J/(g·K)",
    "element_vaporization_heat": "806.7 (kJ/mol)",

    "oxidation_state_neg": "4 2 1 0",
    "oxidation_state_pos": "1 2 3 4 5 6",

    "speed_of_sound_gas": "---",
    "speed_of_sound_liquid": "---",
    "speed_of_sound_solid": "4620 (m/s) [room temperature, annealed]",

    "mohs_hardness": "7.5",
    "vickers_hardness": "3430-4600 (MPa)",
    "brinell_hardness": "2000-4000 (MPa)",

    "young_modulus": "411 (GPa)",
    "poisson_ratio": "0.28",
    "bulk_modulus": "310 (GPa)",
    "shear_modulus": "161 (GPa)",

    "earth_crust": "1.3",
    "urban_soils": "2.9",
    "sea_water": "<0.001",
    "crustal_rocks": "1.0",
    "sun": "0.36",
    "solar_system": "0.13",

      "iso_1": "W-156",
      "iso_mass_1": "155.9735",
      "decay_type_1": "B+",
      "iso_half_1": "157 ms",
      "iso_Z_1": "74",
      "iso_N_1": "82",
      "iso_A_1": "156",

      "iso_2": "W-157",
      "iso_mass_2": "156.9715",
      "decay_type_2": "B+",
      "iso_half_2": "275 ms",
      "iso_Z_2": "74",
      "iso_N_2": "83",
      "iso_A_2": "157",

      "iso_3": "W-158",
      "iso_mass_3": "157.9677",
      "decay_type_3": "α",
      "iso_half_3": "1.37 ms",
      "iso_Z_3": "74",
      "iso_N_3": "84",
      "iso_A_3": "158",

      "iso_4": "W-159",
      "iso_mass_4": "158.9661",
      "decay_type_4": "α",
      "iso_half_4": "8.2 ms",
      "iso_Z_4": "74",
      "iso_N_4": "85",
      "iso_A_4": "159",

      "iso_5": "W-160",
      "iso_mass_5": "159.9623",
      "decay_type_5": "α",
      "iso_half_5": "90 ms",
      "iso_Z_5": "74",
      "iso_N_5": "86",
      "iso_A_5": "160",

      "iso_6": "W-161",
      "iso_mass_6": "160.9607",
      "decay_type_6": "α",
      "iso_half_6": "409 ms",
      "iso_Z_6": "74",
      "iso_N_6": "87",
      "iso_A_6": "161",

      "iso_7": "W-162",
      "iso_mass_7": "161.9575",
      "decay_type_7": "B+",
      "iso_half_7": "1.36 s",
      "iso_Z_7": "74",
      "iso_N_7": "88",
      "iso_A_7": "162",

      "iso_8": "W-163",
      "iso_mass_8": "162.9555",
      "decay_type_8": "B+",
      "iso_half_8": "2.8 s",
      "iso_Z_8": "74",
      "iso_N_8": "89",
      "iso_A_8": "163",

      "iso_9": "W-164",
      "iso_mass_9": "163.9524",
      "decay_type_9": "B+",
      "iso_half_9": "6.3 s",
      "iso_Z_9": "74",
      "iso_N_9": "90",
      "iso_A_9": "164",

      "iso_10": "W-165",
      "iso_mass_10": "164.9505",
      "decay_type_10": "B+",
      "iso_half_10": "5.1 s",
      "iso_Z_10": "74",
      "iso_N_10": "91",
      "iso_A_10": "165",

      "iso_11": "W-166",
      "iso_mass_11": "165.9475",
      "decay_type_11": "B+",
      "iso_half_11": "19.2 s",
      "iso_Z_11": "74",
      "iso_N_11": "92",
      "iso_A_11": "166",

      "iso_12": "W-167",
      "iso_mass_12": "166.9456",
      "decay_type_12": "B+",
      "iso_half_12": "19.9 s",
      "iso_Z_12": "74",
      "iso_N_12": "93",
      "iso_A_12": "167",

      "iso_13": "W-168",
      "iso_mass_13": "167.9428",
      "decay_type_13": "B+",
      "iso_half_13": "51 s",
      "iso_Z_13": "74",
      "iso_N_13": "94",
      "iso_A_13": "168",

      "iso_14": "W-169",
      "iso_mass_14": "168.9413",
      "decay_type_14": "B+",
      "iso_half_14": "76 s",
      "iso_Z_14": "74",
      "iso_N_14": "95",
      "iso_A_14": "169",

      "iso_15": "W-170",
      "iso_mass_15": "169.9385",
      "decay_type_15": "B+",
      "iso_half_15": "2.42 min",
      "iso_Z_15": "74",
      "iso_N_15": "96",
      "iso_A_15": "170",

      "iso_16": "W-171",
      "iso_mass_16": "170.9375",
      "decay_type_16": "B+",
      "iso_half_16": "2.42 min",
      "iso_Z_16": "74",
      "iso_N_16": "97",
      "iso_A_16": "171",

      "iso_17": "W-172",
      "iso_mass_17": "171.9348",
      "decay_type_17": "B+",
      "iso_half_17": "6.8 min",
      "iso_Z_17": "74",
      "iso_N_17": "98",
      "iso_A_17": "172",

      "iso_18": "W-173",
      "iso_mass_18": "172.9342",
      "decay_type_18": "B+",
      "iso_half_18": "7.6 min",
      "iso_Z_18": "74",
      "iso_N_18": "99",
      "iso_A_18": "173",

      "iso_19": "W-174",
      "iso_mass_19": "173.9312",
      "decay_type_19": "B+",
      "iso_half_19": "31.6 min",
      "iso_Z_19": "74",
      "iso_N_19": "100",
      "iso_A_19": "174",

      "iso_20": "W-175",
      "iso_mass_20": "174.9303",
      "decay_type_20": "B+",
      "iso_half_20": "35.1 min",
      "iso_Z_20": "74",
      "iso_N_20": "101",
      "iso_A_20": "175",

      "iso_21": "W-176",
      "iso_mass_21": "175.9275",
      "decay_type_21": "B+",
      "iso_half_21": "2.5 h",
      "iso_Z_21": "74",
      "iso_N_21": "102",
      "iso_A_21": "176",

      "iso_22": "W-177",
      "iso_mass_22": "176.9265",
      "decay_type_22": "B+",
      "iso_half_22": "2.5 h",
      "iso_Z_22": "74",
      "iso_N_22": "103",
      "iso_A_22": "177",

      "iso_23": "W-178",
      "iso_mass_23": "177.9235",
      "decay_type_23": "B+",
      "iso_half_23": "21.6 d",
      "iso_Z_23": "74",
      "iso_N_23": "104",
      "iso_A_23": "178",

      "iso_24": "W-179",
      "iso_mass_24": "178.9235",
      "decay_type_24": "B+",
      "iso_half_24": "21.6 d",
      "iso_Z_24": "74",
      "iso_N_24": "105",
      "iso_A_24": "179",

      "iso_25": "W-180",
      "iso_mass_25": "179.9208",
      "decay_type_25": "α",
      "iso_half_25": "1.8 × 10^18 y",
      "iso_Z_25": "74",
      "iso_N_25": "106",
      "iso_A_25": "180",

      "iso_26": "W-181",
      "iso_mass_26": "180.9212",
      "decay_type_26": "ε",
      "iso_half_26": "121.2 d",
      "iso_Z_26": "74",
      "iso_N_26": "107",
      "iso_A_26": "181",

      "iso_27": "W-182",
      "iso_mass_27": "181.9222",
      "decay_type_27": "stable",
      "iso_half_27": "N/A",
      "iso_Z_27": "74",
      "iso_N_27": "108",
      "iso_A_27": "182",

      "iso_28": "W-183",
      "iso_mass_28": "182.9235",
      "decay_type_28": "stable",
      "iso_half_28": "N/A",
      "iso_Z_28": "74",
      "iso_N_28": "109",
      "iso_A_28": "183",

      "iso_29": "W-184",
      "iso_mass_29": "183.9245",
      "decay_type_29": "stable",
      "iso_half_29": "N/A",
      "iso_Z_29": "74",
      "iso_N_29": "110",
      "iso_A_29": "184",

      "iso_30": "W-185",
      "iso_mass_30": "184.9268",
      "decay_type_30": "B-",
      "iso_half_30": "75.1 d",
      "iso_Z_30": "74",
      "iso_N_30": "111",
      "iso_A_30": "185",

      "iso_31": "W-186",
      "iso_mass_31": "185.9284",
      "decay_type_31": "stable",
      "iso_half_31": "N/A",
      "iso_Z_31": "74",
      "iso_N_31": "112",
      "iso_A_31": "186",

      "iso_32": "W-187",
      "iso_mass_32": "186.9309",
      "decay_type_32": "B-",
      "iso_half_32": "23.9 h",
      "iso_Z_32": "74",
      "iso_N_32": "113",
      "iso_A_32": "187",

      "iso_33": "W-188",
      "iso_mass_33": "187.9338",
      "decay_type_33": "B-",
      "iso_half_33": "69.4 d",
      "iso_Z_33": "74",
      "iso_N_33": "114",
      "iso_A_33": "188",

      "iso_34": "W-189",
      "iso_mass_34": "188.9368",
      "decay_type_34": "B-",
      "iso_half_34": "10.3 m",
      "iso_Z_34": "74",
      "iso_N_34": "115",
      "iso_A_34": "189",

      "iso_35": "W-190",
      "iso_mass_35": "189.9401",
      "decay_type_35": "B-",
      "iso_half_35": "30 s",
      "iso_Z_35": "74",
      "iso_N_35": "116",
      "iso_A_35": "190",

      "iso_36": "W-191",
      "iso_mass_36": "190.9436",
      "decay_type_36": "B-",
      "iso_half_36": "2.8 m",
      "iso_Z_36": "74",
      "iso_N_36": "117",
      "iso_A_36": "191",

      "iso_37": "W-192",
      "iso_mass_37": "191.9472",
      "decay_type_37": "B-",
      "iso_half_37": "3.2 m",
      "iso_Z_37": "74",
      "iso_N_37": "118",
      "iso_A_37": "192",

      "iso_38": "W-193",
      "iso_mass_38": "192.9510",
      "decay_type_38": "B-",
      "iso_half_38": "1.5 m",
      "iso_Z_38": "74",
      "iso_N_38": "119",
      "iso_A_38": "193",

      "iso_39": "W-194",
      "iso_mass_39": "193.9548",
      "decay_type_39": "B-",
      "iso_half_39": "1.6 m",
      "iso_Z_39": "74",
      "iso_N_39": "120",
      "iso_A_39": "194",

      "iso_40": "W-195",
      "iso_mass_40": "194.9589",
      "decay_type_40": "B-",
      "iso_half_40": "1.1 m",
      "iso_Z_40": "74",
      "iso_N_40": "121",
      "iso_A_40": "195"
  }
]