[
  {
    "element_code": "AANxnZbKF4YxSv7FtZZ",
    "wikilink": "https://en.wikipedia.org/wiki/Xenon",
    "link": "https://upload.wikimedia.org/wikipedia/commons/thumb/d/d7/Xenon_discharge_tube.jpg/1920px-Xenon_discharge_tube.jpg",
    "description": "Xenon is a chemical element with the symbol Xe and atomic number 54. It is a colorless, dense, odorless noble gas found in Earth's atmosphere in trace amounts.[11] Although generally unreactive, xenon can undergo a few chemical reactions such as the formation of xenon hexafluoroplatinate, the first noble gas compound to be synthesized.",
    "element": "Xenon",
    "short": "Xe",
    "element_year": "1898",
    "element_discovered_name": "William Ramsay",
    "element_group": "Noble Gases",
    "element_appearance": "Colorless Gas",
    "element_electrons": "54",
    "element_protons": "54",
    "element_neutron_common": "78",
    "radioactive": "No",
    "neutron_cross_sectional": "23.9 (b)",
    "electrical_type": "---",
    "resistivity": "---",
    "resistivity_mult": "---",
    "magnetic_type": "Diamagnetic",
    "superconducting_point": "---",
    "element_atomic_number": "54",
    "element_atomicmass": "131.293 (u)",
    "element_density": "0.005894 (g/cm^3)",
    "element_electronegativty": "2.6",
    "element_block": "p - block",
    "element_shells_electrons": "K2 L8 M18 N18 O8 P0 Q0 R0",
    "element_model": "https://upload.wikimedia.org/wikipedia/commons/thumb/6/60/Electron_shell_054_Xenon_-_no_label.svg/1280px-Electron_shell_054_Xenon_-_no_label.svg.png",
    "element_boiling_kelvin": "165.051 (K)",
    "element_boiling_celsius": "−108.099 (°C)",
    "element_boiling_fahrenheit": "−162.578 (°F)",
    "element_melting_kelvin": "161.40 (K)",
    "element_melting_celsius": "−111.75 (°C)",
    "element_melting_fahrenheit": "−169.15 (°F)",
    "element_electron_config": "4d^10 5s^2 5p^6",
    "element_ion_charge": "---",
    "element_ionization_energy1": "12.1298 (eV)",
    "element_ionization_energy2": "21.20979 (eV)",
    "element_ionization_energy3": "32.1230 (eV)",
    "element_atomic_radius_e": "--- (pm)",
    "element_atomic_radius": "108 (pm)",
    "element_covalent_radius": "130 (pm)",
    "element_van_der_waals": "216",
    "element_phase": "Gas",
    "element_fusion_heat": "2.27 (kJ/mol)",
    "element_specific_heat_capacity": "0.158 J/(g·K)",
    "element_vaporization_heat": "12.57 (kJ/mol)",
    "oxidation_state_neg": "0",
    "oxidation_state_pos": "1 2 4 6 8",
    "speed_of_sound_gas": "178 (m/s) [20°C]",
    "speed_of_sound_liquid": "1090 (m/s)",
    "speed_of_sound_solid": "---",
    "sea_water": "0.047",
    "crustal_rocks": null,
    "sun": null,
    "solar_system": "4.8",
    "iso_1": "108-Xe",
    "iso_mass_1": "107.944",
    "decay_type_1": "B+",
    "iso_half_1": "58 μs",
    "iso_Z_1": "54",
    "iso_N_1": "54",
    "iso_A_1": "108",
    "iso_2": "109-Xe",
    "iso_mass_2": "108.944",
    "decay_type_2": "B+",
    "iso_half_2": "13.7 seconds",
    "iso_Z_2": "54",
    "iso_N_2": "55",
    "iso_A_2": "109",
    "iso_3": "110-Xe",
    "iso_mass_3": "109.944",
    "decay_type_3": "B+",
    "iso_half_3": "0.86 seconds",
    "iso_Z_3": "54",
    "iso_N_3": "56",
    "iso_A_3": "110",
    "iso_4": "111-Xe",
    "iso_mass_4": "110.944",
    "decay_type_4": "B+",
    "iso_half_4": "2.3 seconds",
    "iso_Z_4": "54",
    "iso_N_4": "57",
    "iso_A_4": "111",
    "iso_5": "112-Xe",
    "iso_mass_5": "111.944",
    "decay_type_5": "B+",
    "iso_half_5": "3.42 seconds",
    "iso_Z_5": "54",
    "iso_N_5": "58",
    "iso_A_5": "112",
    "iso_6": "113-Xe",
    "iso_mass_6": "112.944",
    "decay_type_6": "B+",
    "iso_half_6": "6.7 seconds",
    "iso_Z_6": "54",
    "iso_N_6": "59",
    "iso_A_6": "113",
    "iso_7": "114-Xe",
    "iso_mass_7": "113.944",
    "decay_type_7": "B+",
    "iso_half_7": "2.1 minutes",
    "iso_Z_7": "54",
    "iso_N_7": "60",
    "iso_A_7": "114",
    "iso_8": "115-Xe",
    "iso_mass_8": "114.944",
    "decay_type_8": "B+",
    "iso_half_8": "1.2 minutes",
    "iso_Z_8": "54",
    "iso_N_8": "61",
    "iso_A_8": "115",
    "iso_9": "116-Xe",
    "iso_mass_9": "115.944",
    "decay_type_9": "B+",
    "iso_half_9": "2.91 minutes",
    "iso_Z_9": "54",
    "iso_N_9": "62",
    "iso_A_9": "116",
    "iso_10": "117-Xe",
    "iso_mass_10": "116.944",
    "decay_type_10": "B+",
    "iso_half_10": "2.05 minutes",
    "iso_Z_10": "54",
    "iso_N_10": "63",
    "iso_A_10": "117",
    "iso_11": "118-Xe",
    "iso_mass_11": "117.944",
    "decay_type_11": "B+",
    "iso_half_11": "13.7 minutes",
    "iso_Z_11": "54",
    "iso_N_11": "64",
    "iso_A_11": "118",
    "iso_12": "119-Xe",
    "iso_mass_12": "118.944",
    "decay_type_12": "B+",
    "iso_half_12": "19.1 minutes",
    "iso_Z_12": "54",
    "iso_N_12": "65",
    "iso_A_12": "119",
    "iso_13": "120-Xe",
    "iso_mass_13": "119.944",
    "decay_type_13": "B+",
    "iso_half_13": "81.6 minutes",
    "iso_Z_13": "54",
    "iso_N_13": "66",
    "iso_A_13": "120",
    "iso_14": "121-Xe",
    "iso_mass_14": "120.944",
    "decay_type_14": "B+",
    "iso_half_14": "2.12 hours",
    "iso_Z_14": "54",
    "iso_N_14": "67",
    "iso_A_14": "121",
    "iso_15": "122-Xe",
    "iso_mass_15": "121.944",
    "decay_type_15": "B+",
    "iso_half_15": "3.63 minutes",
    "iso_Z_15": "54",
    "iso_N_15": "68",
    "iso_A_15": "122",
    "iso_16": "123-Xe",
    "iso_mass_16": "122.944",
    "decay_type_16": "B+",
    "iso_half_16": "13.2 hours",
    "iso_Z_16": "54",
    "iso_N_16": "69",
    "iso_A_16": "123",
    "iso_17": "124-Xe",
    "iso_mass_17": "123.944",
    "decay_type_17": "B+",
    "iso_half_17": "4.18 days",
    "iso_Z_17": "54",
    "iso_N_17": "70",
    "iso_A_17": "124",
    "iso_18": "125-Xe",
    "iso_mass_18": "124.944",
    "decay_type_18": "e-capture",
    "iso_half_18": "16.9 hours",
    "iso_Z_18": "54",
    "iso_N_18": "71",
    "iso_A_18": "125",
    "iso_19": "126-Xe",
    "iso_mass_19": "125.944",
    "decay_type_19": "stable",
    "iso_half_19": "stable",
    "iso_Z_19": "54",
    "iso_N_19": "72",
    "iso_A_19": "126",
    "iso_20": "127-Xe",
    "iso_mass_20": "126.944",
    "decay_type_20": "e-capture",
    "iso_half_20": "36.345 days",
    "iso_Z_20": "54",
    "iso_N_20": "73",
    "iso_A_20": "127",
    "iso_21": "128-Xe",
    "iso_mass_21": "127.944",
    "decay_type_21": "stable",
    "iso_half_21": "stable",
    "iso_Z_21": "54",
    "iso_N_21": "74",
    "iso_A_21": "128",
    "iso_22": "129-Xe",
    "iso_mass_22": "128.944",
    "decay_type_22": "stable",
    "iso_half_22": "stable",
    "iso_Z_22": "54",
    "iso_N_22": "75",
    "iso_A_22": "129",
    "iso_23": "130-Xe",
    "iso_mass_23": "129.944",
    "decay_type_23": "stable",
    "iso_half_23": "stable",
    "iso_Z_23": "54",
    "iso_N_23": "76",
    "iso_A_23": "130",
    "iso_24": "131-Xe",
    "iso_mass_24": "130.944",
    "decay_type_24": "stable",
    "iso_half_24": "stable",
    "iso_Z_24": "54",
    "iso_N_24": "77",
    "iso_A_24": "131",
    "iso_25": "132-Xe",
    "iso_mass_25": "131.944",
    "decay_type_25": "stable",
    "iso_half_25": "stable",
    "iso_Z_25": "54",
    "iso_N_25": "78",
    "iso_A_25": "132",
    "iso_26": "133-Xe",
    "iso_mass_26": "132.944",
    "decay_type_26": "B-",
    "iso_half_26": "5.247 days",
    "iso_Z_26": "54",
    "iso_N_26": "79",
    "iso_A_26": "133",
    "iso_27": "134-Xe",
    "iso_mass_27": "133.905",
    "decay_type_27": "stable",
    "iso_half_27": "stable",
    "iso_Z_27": "54",
    "iso_N_27": "80",
    "iso_A_27": "134",
    "iso_28": "135-Xe",
    "iso_mass_28": "134.906",
    "decay_type_28": "B-",
    "iso_half_28": "9.14 hours",
    "iso_Z_28": "54",
    "iso_N_28": "81",
    "iso_A_28": "135",
    "iso_29": "136-Xe",
    "iso_mass_29": "135.907",
    "decay_type_29": "stable",
    "iso_half_29": "stable",
    "iso_Z_29": "54",
    "iso_N_29": "82",
    "iso_A_29": "136",
    "iso_30": "137-Xe",
    "iso_mass_30": "136.911",
    "decay_type_30": "B-",
    "iso_half_30": "3.818 minutes",
    "iso_Z_30": "54",
    "iso_N_30": "83",
    "iso_A_30": "137",
    "iso_31": "138-Xe",
    "iso_mass_31": "137.913",
    "decay_type_31": "B-",
    "iso_half_31": "14.08 minutes",
    "iso_Z_31": "54",
    "iso_N_31": "84",
    "iso_A_31": "138",
    "iso_32": "139-Xe",
    "iso_mass_32": "138.918",
    "decay_type_32": "B-",
    "iso_half_32": "39.68 seconds",
    "iso_Z_32": "54",
    "iso_N_32": "85",
    "iso_A_32": "139",
    "iso_33": "140-Xe",
    "iso_mass_33": "139.921",
    "decay_type_33": "B-",
    "iso_half_33": "13.6 seconds",
    "iso_Z_33": "54",
    "iso_N_33": "86",
    "iso_A_33": "140",
    "iso_34": "141-Xe",
    "iso_mass_34": "140.926",
    "decay_type_34": "B-",
    "iso_half_34": "1.7 seconds",
    "iso_Z_34": "54",
    "iso_N_34": "87",
    "iso_A_34": "141",
    "iso_35": "142-Xe",
    "iso_mass_35": "141.929",
    "decay_type_35": "B-",
    "iso_half_35": "1.0 seconds",
    "iso_Z_35": "54",
    "iso_N_35": "88",
    "iso_A_35": "142",
    "iso_36": "143-Xe",
    "iso_mass_36": "142.934",
    "decay_type_36": "B-",
    "iso_half_36": "0.6 seconds",
    "iso_Z_36": "54",
    "iso_N_36": "89",
    "iso_A_36": "143",
    "iso_37": "144-Xe",
    "iso_mass_37": "143.937",
    "decay_type_37": "B-",
    "iso_half_37": "0.3 seconds",
    "iso_Z_37": "54",
    "iso_N_37": "90",
    "iso_A_37": "144",
    "iso_38": "145-Xe",
    "iso_mass_38": "144.942",
    "decay_type_38": "B-",
    "iso_half_38": "0.2 seconds",
    "iso_Z_38": "54",
    "iso_N_38": "91",
    "iso_A_38": "145",
    "iso_39": "146-Xe",
    "iso_mass_39": "145.945",
    "decay_type_39": "B-",
    "iso_half_39": "0.1 seconds",
    "iso_Z_39": "54",
    "iso_N_39": "92",
    "iso_A_39": "146",
    "crystal_structure": "Face-centered cubic (fcc)",
    "lattice_constants": {
      "a": "6.202 Å"
    },
    "debye_temperature": {
      "low_temperature_limit": "55 K",
      "room_temperature": "50 K"
    }
  }
]