[
  {
"element_code": "AAA4RK9TvNs5QgQwfZZ",
    "wikilink": "https://en.wikipedia.org/wiki/Ytterbium",
    "link": "https://upload.wikimedia.org/wikipedia/commons/c/ce/Ytterbium-3.jpg",
    "description": "Ytterbium is a chemical element with the symbol Yb and atomic number 70. It is the fourteenth and penultimate element in the lanthanide series, which is the basis of the relative stability of its +2 oxidation state. However, like the other lanthanides, its most common oxidation state is +3, as in its oxide, halides, and other compounds. In aqueous solution, like compounds of other late lanthanides, soluble ytterbium compounds form complexes with nine water molecules. Because of its closed-shell electron configuration, its density and melting and boiling points differ significantly from those of most other lanthanides.",

    "element": "Ytterbium",
    "short": "Yb",
    "element_year": "1878",
    "element_discovered_name": "Jean Charles Galissard de Marignac",
    "element_group": "Lanthanoids",
    "element_appearance": "Silvery White (with a pale yellow tint)",
    "element_electrons": "70",
    "element_protons": "70",
    "element_neutron_common": "104",

    "radioactive": "No",
    "neutron_cross_sectional": "34.8 (b)",

    "electrical_type": "Conductor",
    "resistivity": "2.8",
    "resistivity_mult": "0.0000001",
    "magnetic_type": "Paramagnetic",
    "superconducting_point": "---",

    "element_atomic_number": "70",
    "element_atomicmass": "173.045 (u)",
    "element_density": "6.90 (g/cm^3)",
    "element_electronegativty": "---",
    "element_block": "f - block",
    "element_shells_electrons": "K2 L8 M18 N32 O8 P2 Q0 R0",
    "element_model": "https://upload.wikimedia.org/wikipedia/commons/thumb/2/2d/Electron_shell_070_Ytterbium_-_no_label.svg/800px-Electron_shell_070_Ytterbium_-_no_label.svg.png",

    "element_boiling_kelvin": "1469 (K)",
    "element_boiling_celsius": "1196 (°C)",
    "element_boiling_fahrenheit": "2185 (°F)",
    "element_melting_kelvin": "1097 (K)",
    "element_melting_celsius": "824 (°C)",
    "element_melting_fahrenheit": "1515 (°F)",

    "element_electron_config": "4f^14 6s^2",
    "element_ion_charge": "Yb^3+, Yb^2+",
    "element_ionization_energy1": "6.25416 (eV)",
    "element_ionization_energy2": "12.1761 (eV)",
    "element_ionization_energy3": "25.05 (eV)",
    "element_ionization_energy4": "43.56 (eV)",
    "element_atomic_radius_e": "175 (pm)",
    "element_atomic_radius": "222 (pm)",
    "element_covalent_radius": "--- (pm)",
    "element_van_der_waals": "---",

    "element_phase": "Solid",
    "element_fusion_heat": "7.66 (kJ/mol)",
    "element_specific_heat_capacity": "0.155 J/(g·K)",
    "element_vaporization_heat": "129 (kJ/mol)",

    "mohs_hardness": "---",
    "vickers_hardness": "206-250 (MPa)",
    "brinell_hardness": "343-441 (MPa)",

    "earth_crust": "0.3",
    "urban_soils": "2.4",

    "speed_of_sound_gas": "---",
    "speed_of_sound_liquid": "---",
    "speed_of_sound_solid": "1590 (m/s) [20°C]",

    "young_modulus": "23.9 (GPa) [β-form]",
    "poisson_ratio": "0.207 [β-form]",
    "bulk_modulus": "30.5 (GPa) [β-form]",
    "shear_modulus": "9.9 (GPa) [β-form]",

      "iso_1": "Yb-148",
      "iso_mass_1": "148.96422",
      "decay_type_1": "B+",
      "iso_half_1": "0.7 s",
      "iso_Z_1": "70",
      "iso_N_1": "78",
      "iso_A_1": "148",

      "iso_2": "Yb-149",
      "iso_mass_2": "149.95831",
      "decay_type_2": "B+",
      "iso_half_2": "700 ms",
      "iso_Z_2": "70",
      "iso_N_2": "79",
      "iso_A_2": "149",

      "iso_3": "Yb-150",
      "iso_mass_3": "150.95540",
      "decay_type_3": "B+",
      "iso_half_3": "1.6 s",
      "iso_Z_3": "70",
      "iso_N_3": "80",
      "iso_A_3": "150",

      "iso_4": "Yb-151",
      "iso_mass_4": "151.95033",
      "decay_type_4": "B+",
      "iso_half_4": "3.03 s",
      "iso_Z_4": "70",
      "iso_N_4": "81",
      "iso_A_4": "151",

      "iso_5": "Yb-152",
      "iso_mass_5": "152.94937",
      "decay_type_5": "B+",
      "iso_half_5": "4.2 s",
      "iso_Z_5": "70",
      "iso_N_5": "82",
      "iso_A_5": "152",

      "iso_6": "Yb-153",
      "iso_mass_6": "153.946396",
      "decay_type_6": "B+",
      "iso_half_6": "0.409 s",
      "iso_Z_6": "70",
      "iso_N_6": "83",
      "iso_A_6": "153",

      "iso_7": "Yb-154",
      "iso_mass_7": "154.945783",
      "decay_type_7": "B+",
      "iso_half_7": "1.793 s",
      "iso_Z_7": "70",
      "iso_N_7": "84",
      "iso_A_7": "154",

      "iso_8": "Yb-155",
      "iso_mass_8": "155.942817",
      "decay_type_8": "B+",
      "iso_half_8": "26.1 s",
      "iso_Z_8": "70",
      "iso_N_8": "85",
      "iso_A_8": "155",

      "iso_9": "Yb-156",
      "iso_mass_9": "156.942651",
      "decay_type_9": "B+",
      "iso_half_9": "38.6 s",
      "iso_Z_9": "70",
      "iso_N_9": "86",
      "iso_A_9": "156",

      "iso_10": "Yb-157",
      "iso_mass_10": "157.939871",
      "decay_type_10": "B+",
      "iso_half_10": "1.49 min",
      "iso_Z_10": "70",
      "iso_N_10": "87",
      "iso_A_10": "157",

      "iso_11": "Yb-158",
      "iso_mass_11": "158.940060",
      "decay_type_11": "B+",
      "iso_half_11": "1.67 min",
      "iso_Z_11": "70",
      "iso_N_11": "88",
      "iso_A_11": "158",

      "iso_12": "Yb-159",
      "iso_mass_12": "159.937559",
      "decay_type_12": "B+",
      "iso_half_12": "4.8 min",
      "iso_Z_12": "70",
      "iso_N_12": "89",
      "iso_A_12": "159",

      "iso_13": "Yb-160",
      "iso_mass_13": "160.937912",
      "decay_type_13": "B+",
      "iso_half_13": "4.2 min",
      "iso_Z_13": "70",
      "iso_N_13": "90",
      "iso_A_13": "160",

      "iso_14": "Yb-161",
      "iso_mass_14": "161.935779",
      "decay_type_14": "B+",
      "iso_half_14": "18.87 min",
      "iso_Z_14": "70",
      "iso_N_14": "91",
      "iso_A_14": "161",

      "iso_15": "Yb-162",
      "iso_mass_15": "162.936345",
      "decay_type_15": "B+",
      "iso_half_15": "11.05 min",
      "iso_Z_15": "70",
      "iso_N_15": "92",
      "iso_A_15": "162",

      "iso_16": "Yb-163",
      "iso_mass_16": "163.934501",
      "decay_type_16": "B+",
      "iso_half_16": "1.5 min",
      "iso_Z_16": "70",
      "iso_N_16": "93",
      "iso_A_16": "163",

      "iso_17": "Yb-164",
      "iso_mass_17": "164.935280",
      "decay_type_17": "B+",
      "iso_half_17": "1.5 min",
      "iso_Z_17": "70",
      "iso_N_17": "94",
      "iso_A_17": "164",

      "iso_18": "Yb-165",
      "iso_mass_18": "165.933882",
      "decay_type_18": "B+",
      "iso_half_18": "1.5 min",
      "iso_Z_18": "70",
      "iso_N_18": "95",
      "iso_A_18": "165",

      "iso_19": "Yb-166",
      "iso_mass_19": "166.934950",
      "decay_type_19": "B+",
      "iso_half_19": "1.5 min",
      "iso_Z_19": "70",
      "iso_N_19": "96",
      "iso_A_19": "166",

      "iso_20": "Yb-167",
      "iso_mass_20": "167.933897",
      "decay_type_20": "B+",
      "iso_half_20": "1.5 min",
      "iso_Z_20": "70",
      "iso_N_20": "97",
      "iso_A_20": "167",

      "iso_21": "Yb-168",
      "iso_mass_21": "168.935190",
      "decay_type_21": "B+",
      "iso_half_21": "1.5 min",
      "iso_Z_21": "70",
      "iso_N_21": "98",
      "iso_A_21": "168",

      "iso_22": "Yb-169",
      "iso_mass_22": "169.934760",
      "decay_type_22": "B+",
      "iso_half_22": "1.5 min",
      "iso_Z_22": "70",
      "iso_N_22": "99",
      "iso_A_22": "169",

      "iso_23": "Yb-170",
      "iso_mass_23": "170.936330",
      "decay_type_23": "B+",
      "iso_half_23": "1.5 min",
      "iso_Z_23": "70",
      "iso_N_23": "100",
      "iso_A_23": "170",

      "iso_24": "Yb-171",
      "iso_mass_24": "171.936380",
      "decay_type_24": "B+",
      "iso_half_24": "1.5 min",
      "iso_Z_24": "70",
      "iso_N_24": "101",
      "iso_A_24": "171",

      "iso_25": "Yb-172",
      "iso_mass_25": "172.938210",
      "decay_type_25": "B+",
      "iso_half_25": "1.5 min",
      "iso_Z_25": "70",
      "iso_N_25": "102",
      "iso_A_25": "172",

      "iso_26": "Yb-173",
      "iso_mass_26": "172.93822",
      "decay_type_26": "stable",
      "iso_half_26": "stable",
      "iso_Z_26": "70",
      "iso_N_26": "103",
      "iso_A_26": "173",

      "iso_27": "Yb-174",
      "iso_mass_27": "173.93887",
      "decay_type_27": "stable",
      "iso_half_27": "N/A",
      "iso_Z_27": "70",
      "iso_N_27": "104",
      "iso_A_27": "174",

      "iso_28": "Yb-175",
      "iso_mass_28": "174.94128",
      "decay_type_28": "B-",
      "iso_half_28": "4.185 d",
      "iso_Z_28": "70",
      "iso_N_28": "105",
      "iso_A_28": "175",

      "iso_29": "Yb-176",
      "iso_mass_29": "175.94258",
      "decay_type_29": "stable",
      "iso_half_29": "N/A",
      "iso_Z_29": "70",
      "iso_N_29": "106",
      "iso_A_29": "176",

      "iso_30": "Yb-177",
      "iso_mass_30": "176.94526",
      "decay_type_30": "B-",
      "iso_half_30": "1.911 h",
      "iso_Z_30": "70",
      "iso_N_30": "107",
      "iso_A_30": "177",

      "iso_31": "Yb-178",
      "iso_mass_31": "177.94665",
      "decay_type_31": "B-",
      "iso_half_31": "1.3 h",
      "iso_Z_31": "70",
      "iso_N_31": "108",
      "iso_A_31": "178",

      "iso_32": "Yb-179",
      "iso_mass_32": "178.95017",
      "decay_type_32": "B-",
      "iso_half_32": "18 min",
      "iso_Z_32": "70",
      "iso_N_32": "109",
      "iso_A_32": "179",

      "iso_33": "Yb-180",
      "iso_mass_33": "179.95233",
      "decay_type_33": "B-",
      "iso_half_33": "5.4 min",
      "iso_Z_33": "70",
      "iso_N_33": "110",
      "iso_A_33": "180",

      "iso_34": "Yb-181",
      "iso_mass_34": "180.95615",
      "decay_type_34": "B-",
      "iso_half_34": "3.6 min",
      "iso_Z_34": "70",
      "iso_N_34": "111",
      "iso_A_34": "181",

      "iso_35": "Yb-182",
      "iso_mass_35": "181.95864",
      "decay_type_35": "B-",
      "iso_half_35": "19.9 s",
      "iso_Z_35": "70",
      "iso_N_35": "112",
      "iso_A_35": "182",

      "iso_36": "Yb-183",
      "iso_mass_36": "182.96291",
      "decay_type_36": "B-",
      "iso_half_36": "5.9 s",
      "iso_Z_36": "70",
      "iso_N_36": "113",
      "iso_A_36": "183",

      "iso_37": "Yb-184",
      "iso_mass_37": "183.96569",
      "decay_type_37": "B-",
      "iso_half_37": "2.1 s",
      "iso_Z_37": "70",
      "iso_N_37": "114",
      "iso_A_37": "184",

      "iso_38": "Yb-185",
      "iso_mass_38": "184.97031",
      "decay_type_38": "B-",
      "iso_half_38": "0.9 s",
      "iso_Z_38": "70",
      "iso_N_38": "115",
      "iso_A_38": "185",

      "iso_39": "Yb-186",
      "iso_mass_39": "185.97323",
      "decay_type_39": "B-",
      "iso_half_39": "0.5 s",
      "iso_Z_39": "70",
      "iso_N_39": "116",
      "iso_A_39": "186",

      "iso_40": "Yb-187",
      "iso_mass_40": "186.97827",
      "decay_type_40": "B-",
      "iso_half_40": "0.4 s",
      "iso_Z_40": "70",
      "iso_N_40": "117",
      "iso_A_40": "187"
  }
]